 vasp.5.4.4.18Apr17-6-g9f103f2a35 (build Jan 19 2018 17:03:37) complex          
  
 executed on             LinuxIFC date 2018.03.22  15:02:51
 running on  576 total cores
 distrk:  each k-point on   72 cores,    8 groups
 distr:  one band on NCORES_PER_BAND=   4 cores,   18 groups


--------------------------------------------------------------------------------------------------------


 INCAR:
 POTCAR:   PAW_PBE H 15Jun2001                    
 POTCAR:   PAW_PBE Pb 08Apr2002                   
 POTCAR:   PAW_PBE C_s 06Sep2000                  
 POTCAR:   PAW_PBE I 08Apr2002                    
 POTCAR:   PAW_PBE N 08Apr2002                    

 ----------------------------------------------------------------------------- 
|                                                                             |
|           W    W    AA    RRRRR   N    N  II  N    N   GGGG   !!!           |
|           W    W   A  A   R    R  NN   N  II  NN   N  G    G  !!!           |
|           W    W  A    A  R    R  N N  N  II  N N  N  G       !!!           |
|           W WW W  AAAAAA  RRRRR   N  N N  II  N  N N  G  GGG   !            |
|           WW  WW  A    A  R   R   N   NN  II  N   NN  G    G                |
|           W    W  A    A  R    R  N    N  II  N    N   GGGG   !!!           |
|                                                                             |
|      For optimal performance we recommend to set                            |
|        NCORE= 4 - approx SQRT( number of cores)                             |
|      NCORE specifies how many cores store one orbital (NPAR=cpu/NCORE).     |
|      This setting can  greatly improve the performance of VASP for DFT.     |
|      The default,   NCORE=1            might be grossly inefficient         |
|      on modern multi-core architectures or massively parallel machines.     |
|      Do your own testing !!!!                                               |
|      Unfortunately you need to use the default for GW and RPA calculations. |
|      (for HF NCORE is supported but not extensively tested yet)             |
|                                                                             |
 ----------------------------------------------------------------------------- 


 ----------------------------------------------------------------------------- 
|                                                                             |
|           W    W    AA    RRRRR   N    N  II  N    N   GGGG   !!!           |
|           W    W   A  A   R    R  NN   N  II  NN   N  G    G  !!!           |
|           W    W  A    A  R    R  N N  N  II  N N  N  G       !!!           |
|           W WW W  AAAAAA  RRRRR   N  N N  II  N  N N  G  GGG   !            |
|           WW  WW  A    A  R   R   N   NN  II  N   NN  G    G                |
|           W    W  A    A  R    R  N    N  II  N    N   GGGG   !!!           |
|                                                                             |
|      You have enabled k-point parallelism (KPAR>1).                         |
|      This developmental code was originally  written by Paul Kent at ORNL,  |
|      and carefully double checked in Vienna.                                |
|      GW as well as linear response parallelism added by Martijn Marsman     |
|      and Georg Kresse.                                                      |
|      Carefully verify results versus KPAR=1.                                |
|      Report problems to Paul Kent and Vienna.                               |
|                                                                             |
 ----------------------------------------------------------------------------- 

 POTCAR:   PAW_PBE H 15Jun2001                    
   VRHFIN =H: ultrasoft test                                                    
   LEXCH  = PE                                                                  
   EATOM  =    12.4884 eV,     .9179 Ry                                         
                                                                                
   TITEL  = PAW_PBE H 15Jun2001                                                 
   LULTRA =        F    use ultrasoft PP ?                                      
   IUNSCR =        0    unscreen: 0-lin 1-nonlin 2-no                           
   RPACOR =     .000    partial core radius                                     
   POMASS =    1.000; ZVAL   =    1.000    mass and valenz                      
   RCORE  =    1.100    outmost cutoff radius                                   
   RWIGS  =     .700; RWIGS  =     .370    wigner-seitz radius (au A)           
   ENMAX  =  250.000; ENMIN  =  200.000 eV                                      
   RCLOC  =     .701    cutoff for local pot                                    
   LCOR   =        T    correct aug charges                                     
   LPAW   =        T    paw PP                                                  
   EAUG   =  400.000                                                            
   RMAX   =    2.174    core radius for proj-oper                               
   RAUG   =    1.200    factor for augmentation sphere                          
   RDEP   =    1.112    radius for radial grids                                 
   QCUT   =   -5.749; QGAM   =   11.498    optimization parameters              
                                                                                
   Description                                                                  
     l     E      TYP  RCUT    TYP  RCUT                                        
     0   .000     23  1.100                                                     
     0   .500     23  1.100                                                     
     1  -.300     23  1.100                                                     
  local pseudopotential read in
  atomic valenz-charges read in
  non local Contribution for L=           0  read in
    real space projection operators read in
  non local Contribution for L=           0  read in
    real space projection operators read in
  non local Contribution for L=           1  read in
    real space projection operators read in
    PAW grid and wavefunctions read in
 
   number of l-projection  operators is LMAX  =           3
   number of lm-projection operators is LMMAX =           5
 
 POTCAR:   PAW_PBE Pb 08Apr2002                   
   VRHFIN =Pb:                                                                  
   LEXCH  = PE                                                                  
   EATOM  =    96.9868 eV,    7.1283 Ry                                         
                                                                                
   TITEL  = PAW_PBE Pb 08Apr2002                                                
   LULTRA =        F    use ultrasoft PP ?                                      
   IUNSCR =        1    unscreen: 0-lin 1-nonlin 2-no                           
   RPACOR =    2.200    partial core radius                                     
   POMASS =  207.200; ZVAL   =    4.000    mass and valenz                      
   RCORE  =    3.100    outmost cutoff radius                                   
   RWIGS  =    3.260; RWIGS  =    1.725    wigner-seitz radius (au A)           
   ENMAX  =   97.973; ENMIN  =   73.480 eV                                      
   ICORE  =        3    local potential                                         
   LCOR   =        T    correct aug charges                                     
   LPAW   =        T    paw PP                                                  
   EAUG   =  234.873                                                            
   DEXC   =    -.129                                                            
   RMAX   =    4.658    core radius for proj-oper                               
   RAUG   =    1.300    factor for augmentation sphere                          
   RDEP   =    3.202    radius for radial grids                                 
   QCUT   =   -2.683; QGAM   =    5.367    optimization parameters              
                                                                                
   Description                                                                  
     l     E      TYP  RCUT    TYP  RCUT                                        
     0   .000     23  3.100                                                     
     0   .000     23  3.100                                                     
     1   .000     23  3.100                                                     
     1  -.400     23  3.100                                                     
     2  -.100     23  3.100                                                     
     3  -.100     23  3.100                                                     
  local pseudopotential read in
  partial core-charges read in
  atomic valenz-charges read in
  non local Contribution for L=           0  read in
    real space projection operators read in
  non local Contribution for L=           0  read in
    real space projection operators read in
  non local Contribution for L=           1  read in
    real space projection operators read in
  non local Contribution for L=           1  read in
    real space projection operators read in
  non local Contribution for L=           2  read in
    real space projection operators read in
    PAW grid and wavefunctions read in
 
   number of l-projection  operators is LMAX  =           5
   number of lm-projection operators is LMMAX =          13
 
 POTCAR:   PAW_PBE C_s 06Sep2000                  
   VRHFIN =C: s2p2                                                              
   LEXCH  = PE                                                                  
   EATOM  =   147.1520 eV,   10.8154 Ry                                         
                                                                                
   TITEL  = PAW_PBE C_s 06Sep2000                                               
   LULTRA =        F    use ultrasoft PP ?                                      
   IUNSCR =        0    unscreen: 0-lin 1-nonlin 2-no                           
   RPACOR =     .000    partial core radius                                     
   POMASS =   12.011; ZVAL   =    4.000    mass and valenz                      
   RCORE  =    1.850    outmost cutoff radius                                   
   RWIGS  =    1.890; RWIGS  =    1.000    wigner-seitz radius (au A)           
   ENMAX  =  273.901; ENMIN  =  205.426 eV                                      
   RCLOC  =     .804    cutoff for local pot                                    
   LCOR   =        T    correct aug charges                                     
   LPAW   =        T    paw PP                                                  
   EAUG   =  439.243                                                            
   DEXC   =     .000                                                            
   RMAX   =    2.786    core radius for proj-oper                               
   RAUG   =    1.300    factor for augmentation sphere                          
   RDEP   =    1.940    radius for radial grids                                 
   QCUT   =   -4.487; QGAM   =    8.974    optimization parameters              
                                                                                
   Description                                                                  
     l     E      TYP  RCUT    TYP  RCUT                                        
     0   .000     23  1.500                                                     
     0   .000     23  1.500                                                     
     1   .000     23  1.850                                                     
     1   .000     23  1.850                                                     
     2   .000      7   .000                                                     
  local pseudopotential read in
  atomic valenz-charges read in
  non local Contribution for L=           0  read in
    real space projection operators read in
  non local Contribution for L=           0  read in
    real space projection operators read in
  non local Contribution for L=           1  read in
    real space projection operators read in
  non local Contribution for L=           1  read in
    real space projection operators read in
    PAW grid and wavefunctions read in
 
   number of l-projection  operators is LMAX  =           4
   number of lm-projection operators is LMMAX =           8
 
 POTCAR:   PAW_PBE I 08Apr2002                    
   VRHFIN =I : s2p5                                                             
   LEXCH  = PE                                                                  
   EATOM  =   315.8678 eV,   23.2156 Ry                                         
                                                                                
   TITEL  = PAW_PBE I 08Apr2002                                                 
   LULTRA =        F    use ultrasoft PP ?                                      
   IUNSCR =        1    unscreen: 0-lin 1-nonlin 2-no                           
   RPACOR =    2.200    partial core radius                                     
   POMASS =  126.904; ZVAL   =    7.000    mass and valenz                      
   RCORE  =    2.300    outmost cutoff radius                                   
   RWIGS  =    2.810; RWIGS  =    1.487    wigner-seitz radius (au A)           
   ENMAX  =  175.647; ENMIN  =  131.735 eV                                      
   ICORE  =        3    local potential                                         
   LCOR   =        T    correct aug charges                                     
   LPAW   =        T    paw PP                                                  
   EAUG   =  370.139                                                            
   DEXC   =    -.080                                                            
   RMAX   =    3.479    core radius for proj-oper                               
   RAUG   =    1.300    factor for augmentation sphere                          
   RDEP   =    2.392    radius for radial grids                                 
   QCUT   =   -3.593; QGAM   =    7.186    optimization parameters              
                                                                                
   Description                                                                  
     l     E      TYP  RCUT    TYP  RCUT                                        
     0   .000     23  2.300                                                     
     0   .000     23  2.300                                                     
     1   .000     23  2.300                                                     
     1   .000     23  2.300                                                     
     2   .000     23  2.300                                                     
     3  -.100     23  2.300                                                     
  local pseudopotential read in
  partial core-charges read in
  atomic valenz-charges read in
  non local Contribution for L=           0  read in
    real space projection operators read in
  non local Contribution for L=           0  read in
    real space projection operators read in
  non local Contribution for L=           1  read in
    real space projection operators read in
  non local Contribution for L=           1  read in
    real space projection operators read in
  non local Contribution for L=           2  read in
    real space projection operators read in
    PAW grid and wavefunctions read in
 
   number of l-projection  operators is LMAX  =           5
   number of lm-projection operators is LMMAX =          13
 
 POTCAR:   PAW_PBE N 08Apr2002                    
   VRHFIN =N: s2p3                                                              
   LEXCH  = PE                                                                  
   EATOM  =   264.5486 eV,   19.4438 Ry                                         
                                                                                
   TITEL  = PAW_PBE N 08Apr2002                                                 
   LULTRA =        F    use ultrasoft PP ?                                      
   IUNSCR =        0    unscreen: 0-lin 1-nonlin 2-no                           
   RPACOR =     .000    partial core radius                                     
   POMASS =   14.001; ZVAL   =    5.000    mass and valenz                      
   RCORE  =    1.500    outmost cutoff radius                                   
   RWIGS  =    1.400; RWIGS  =     .741    wigner-seitz radius (au A)           
   ENMAX  =  400.000; ENMIN  =  300.000 eV                                      
   ICORE  =        2    local potential                                         
   LCOR   =        T    correct aug charges                                     
   LPAW   =        T    paw PP                                                  
   EAUG   =  627.112                                                            
   DEXC   =     .000                                                            
   RMAX   =    2.247    core radius for proj-oper                               
   RAUG   =    1.300    factor for augmentation sphere                          
   RDEP   =    1.514    radius for radial grids                                 
   QCUT   =   -5.562; QGAM   =   11.124    optimization parameters              
                                                                                
   Description                                                                  
     l     E      TYP  RCUT    TYP  RCUT                                        
     0   .000     23  1.200                                                     
     0   .000     23  1.200                                                     
     1   .000     23  1.500                                                     
     1   .700     23  1.500                                                     
     2   .000      7  1.500                                                     
  local pseudopotential read in
  atomic valenz-charges read in
  non local Contribution for L=           0  read in
    real space projection operators read in
  non local Contribution for L=           0  read in
    real space projection operators read in
  non local Contribution for L=           1  read in
    real space projection operators read in
  non local Contribution for L=           1  read in
    real space projection operators read in
    PAW grid and wavefunctions read in
 
   number of l-projection  operators is LMAX  =           4
   number of lm-projection operators is LMMAX =           8
 
 Optimization of the real space projectors (new method)

 maximal supplied QI-value         = 34.20
 optimisation between [QCUT,QGAM] = [  9.92, 20.18] = [ 27.55,114.04] Ry 
 Optimized for a Real-space Cutoff    1.34 Angstroem

   l    n(q)    QCUT    max X(q) W(low)/X(q) W(high)/X(q)  e(spline) 
   0      8     9.919     4.436    0.31E-04    0.59E-04    0.66E-07
   0      8     9.919    16.131    0.16E-03    0.20E-03    0.35E-06
   1      8     9.919     4.654    0.19E-03    0.46E-03    0.40E-06
 Optimization of the real space projectors (new method)

 maximal supplied QI-value         = 12.09
 optimisation between [QCUT,QGAM] = [ 10.16, 20.44] = [ 28.90,116.99] Ry 
 Optimized for a Real-space Cutoff    1.70 Angstroem

   l    n(q)    QCUT    max X(q) W(low)/X(q) W(high)/X(q)  e(spline) 
   0     10    10.159     8.417    0.10E-04    0.20E-05    0.77E-08
   0     10    10.159    43.994    0.62E-04    0.34E-04    0.33E-06
   1     10    10.159     7.080    0.81E-05    0.62E-05    0.11E-07
   1     10    10.159    90.749    0.68E-04    0.20E-03    0.15E-06
   2      9    10.159     8.916    0.64E-04    0.23E-04    0.13E-06
 Optimization of the real space projectors (new method)

 maximal supplied QI-value         = 20.41
 optimisation between [QCUT,QGAM] = [ 10.20, 20.41] = [ 29.16,116.64] Ry 
 Optimized for a Real-space Cutoff    1.30 Angstroem

   l    n(q)    QCUT    max X(q) W(low)/X(q) W(high)/X(q)  e(spline) 
   0      8    10.205     4.931    0.11E-04    0.54E-05    0.18E-07
   0      8    10.205    45.150    0.20E-03    0.12E-03    0.15E-06
   1      7    10.205     4.092    0.18E-04    0.16E-03    0.83E-07
   1      7    10.205    57.782    0.15E-03    0.55E-03    0.19E-06
 Optimization of the real space projectors (new method)

 maximal supplied QI-value         = 16.25
 optimisation between [QCUT,QGAM] = [ 10.24, 20.48] = [ 29.35,117.42] Ry 
 Optimized for a Real-space Cutoff    1.42 Angstroem

   l    n(q)    QCUT    max X(q) W(low)/X(q) W(high)/X(q)  e(spline) 
   0      9    10.239     6.350    0.16E-04    0.55E-05    0.44E-08
   0      9    10.239    79.378    0.80E-04    0.11E-03    0.78E-07
   1      8    10.239     4.566    0.21E-04    0.12E-04    0.22E-07
   1      8    10.239    71.978    0.25E-03    0.30E-03    0.73E-07
   2      8    10.239     4.877    0.44E-04    0.81E-04    0.46E-07
 Optimization of the real space projectors (new method)

 maximal supplied QI-value         = 25.13
 optimisation between [QCUT,QGAM] = [ 10.05, 20.36] = [ 28.30,116.06] Ry 
 Optimized for a Real-space Cutoff    1.70 Angstroem

   l    n(q)    QCUT    max X(q) W(low)/X(q) W(high)/X(q)  e(spline) 
   0     10    10.053     4.511    0.26E-04    0.81E-05    0.18E-06
   0     10    10.053    37.799    0.60E-04    0.98E-04    0.61E-06
   1     10    10.053     2.478    0.79E-05    0.19E-04    0.19E-06
   1     10    10.053     4.765    0.18E-03    0.77E-03    0.49E-05
 PAW_PBE H 15Jun2001                    :
 energy of atom  1       EATOM=  -12.4884
 kinetic energy error for atom=    0.0098 (will be added to EATOM!!)
 PAW_PBE Pb 08Apr2002                   :
 energy of atom  2       EATOM=  -96.9868
 kinetic energy error for atom=    0.0001 (will be added to EATOM!!)
 PAW_PBE C_s 06Sep2000                  :
 energy of atom  3       EATOM= -147.1520
 kinetic energy error for atom=    0.0046 (will be added to EATOM!!)
 PAW_PBE I 08Apr2002                    :
 energy of atom  4       EATOM= -315.8678
 kinetic energy error for atom=    0.0013 (will be added to EATOM!!)
 PAW_PBE N 08Apr2002                    :
 energy of atom  5       EATOM= -264.5486
 kinetic energy error for atom=    0.0736 (will be added to EATOM!!)
 
 
 POSCAR: CH3PbI3 tetragonal                      
  positions in direct lattice
  velocities in cartesian coordinates
 exchange correlation table for  LEXCH =        8
   RHO(1)=    0.500       N(1)  =     2000
   RHO(2)=  100.500       N(2)  =     4000

 VTST: version 3.1, (03/28/14)

 CHAIN: initializing optimizer
 
 OPT: Using VASP Dynamics algorithm
 CHAIN: Read ICHAIN            0
 
 POSCAR: CH3PbI3 tetragonal                      
  positions in direct lattice
  velocities in cartesian coordinates
 


--------------------------------------------------------------------------------------------------------


 ion  position               nearest neighbor table
   1  0.499  0.995  0.840-  30 1.09
   2  0.526  0.861  0.735-  30 1.10
   3  0.374  0.995  0.728-  30 1.10
   4  0.589  0.071  0.619-  46 1.03
   5  0.560  0.198  0.715-  46 1.04
   6  0.705  0.074  0.723-  46 1.04
   7  0.000  0.518  0.630-  32 1.09
   8  0.991  0.675  0.720-  32 1.10
   9  0.842  0.536  0.719-  32 1.10
  10  0.015  0.495  0.864-  48 1.04
  11  0.027  0.347  0.781-  48 1.04
  12  0.165  0.478  0.783-  48 1.04
  13  0.482  1.000  0.130-  29 1.09
  14  0.464  0.158  0.219-  29 1.10
  15  0.325  0.009  0.220-  29 1.10
  16  0.505  0.985  0.364-  45 1.04
  17  0.522  0.835  0.283-  45 1.04
  18  0.653  0.973  0.281-  45 1.04
  19  0.005  0.501  0.340-  31 1.09
  20  0.005  0.626  0.228-  31 1.10
  21  0.139  0.474  0.235-  31 1.10
  22  0.929  0.411  0.119-  47 1.03
  23  0.926  0.295  0.223-  47 1.04
  24  0.802  0.440  0.215-  47 1.04
  25  0.001  0.983  0.990-  35 3.12  36 3.20  34 3.20  33 3.21  43 3.21  41 3.22
  26  0.499  0.491  0.990-  35 3.13  34 3.18  44 3.19  33 3.20  36 3.21  42 3.22
  27  0.017  0.999  0.490-  38 3.12  37 3.20  39 3.20  40 3.21  41 3.21  43 3.22
  28  0.509  0.501  0.490-  38 3.13  39 3.18  42 3.19  40 3.20  37 3.21  44 3.22
  29  0.446  0.036  0.208-  13 1.09  14 1.10  15 1.10  45 1.49
  30  0.490  0.976  0.755-   1 1.09   2 1.10   3 1.10  46 1.49
  31  0.024  0.510  0.255-  19 1.09  21 1.10  20 1.10  47 1.49
  32  0.964  0.554  0.708-   7 1.09   9 1.10   8 1.10  48 1.49
  33  0.205  0.282  0.020-  26 3.20  25 3.21
  34  0.706  0.195  0.982-  26 3.18  25 3.20
  35  0.291  0.779  0.978-  25 3.12  26 3.13
  36  0.815  0.671  0.976-  25 3.20  26 3.21
  37  0.329  0.185  0.476-  27 3.20  28 3.21
  38  0.221  0.709  0.478-  27 3.12  28 3.13
  39  0.805  0.294  0.482-  28 3.18  27 3.20
  40  0.718  0.795  0.520-  28 3.20  27 3.21
  41  0.948  0.991  0.241-  27 3.21  25 3.22
  42  0.528  0.540  0.241-  28 3.19  26 3.22
  43  0.009  0.052  0.741-  25 3.21  27 3.22
  44  0.460  0.472  0.741-  26 3.19  28 3.22
  45  0.537  0.952  0.289-  16 1.04  17 1.04  18 1.04  29 1.49
  46  0.592  0.086  0.700-   4 1.03   6 1.04   5 1.04  30 1.49
  47  0.914  0.408  0.200-  22 1.03  23 1.04  24 1.04  31 1.49
  48  0.048  0.463  0.789-  10 1.04  12 1.04  11 1.04  32 1.49
 
  LATTYP: Found a simple tetragonal cell.
 ALAT       =     8.8009004593
 C/A-ratio  =     1.4414093734
  
  Lattice vectors:
  
 A1 = (   8.8009004593,   0.0000000000,   0.0000000000)
 A2 = (   0.0000000000,   8.8009004593,   0.0000000000)
 A3 = (   0.0000000000,   0.0000000000,  12.6857004166)


Analysis of symmetry for initial positions (statically):
=====================================================================
 Subroutine PRICEL returns:
 Original cell was already a primitive cell.
 

 Routine SETGRP: Setting up the symmetry group for a 
 simple tetragonal supercell.


 Subroutine GETGRP returns: Found  2 space group operations
 (whereof  1 operations were pure point group operations)
 out of a pool of 16 trial point group operations.


The static configuration has the point symmetry C_1 .
 The point group associated with its full space group is C_1h.


Analysis of symmetry for dynamics (positions and initial velocities):
=====================================================================
 Subroutine PRICEL returns:
 Original cell was already a primitive cell.
 

 Routine SETGRP: Setting up the symmetry group for a 
 simple tetragonal supercell.


 Subroutine GETGRP returns: Found  2 space group operations
 (whereof  1 operations were pure point group operations)
 out of a pool of 16 trial point group operations.


The dynamic configuration has the point symmetry C_1 .
 The point group associated with its full space group is C_1h.


Analysis of structural, dynamic, and magnetic symmetry:
=====================================================================
 Subroutine PRICEL returns:
 Original cell was already a primitive cell.
 

 Routine SETGRP: Setting up the symmetry group for a 
 simple tetragonal supercell.


 Subroutine GETGRP returns: Found  2 space group operations
 (whereof  1 operations were pure point group operations)
 out of a pool of 16 trial point group operations.


The (compounded) configuration has the point symmetry C_1 .
 The point group associated with its full space group is C_1h.


 Subroutine INISYM returns: Found  2 space group operations
 (whereof  1 operations are pure point group operations),
 and found     1 'primitive' translations

 
 
 KPOINTS: Automatic Mesh                          

Automatic generation of k-mesh.
Space group operators:
 irot       det(A)        alpha          n_x          n_y          n_z        tau_x        tau_y        tau_z
    1     1.000000     0.000000     1.000000     0.000000     0.000000     0.000000     0.000000     0.000000
    2    -1.000000   180.000000     0.707107     0.707107     0.000000     0.000000     0.000000     0.500000
 
 Subroutine IBZKPT returns following result:
 ===========================================
 
 Found    196 irreducible k-points:
 
 Following reciprocal coordinates:
            Coordinates               Weight
  0.000000  0.000000  0.000000      1.000000
  0.142857  0.000000  0.000000      2.000000
  0.285714  0.000000  0.000000      2.000000
  0.428571  0.000000  0.000000      2.000000
 -0.428571  0.000000  0.000000      2.000000
 -0.285714  0.000000  0.000000      2.000000
 -0.142857  0.000000  0.000000      2.000000
  0.142857  0.142857  0.000000      2.000000
  0.285714  0.142857  0.000000      2.000000
  0.428571  0.142857  0.000000      2.000000
 -0.428571  0.142857  0.000000      2.000000
 -0.285714  0.142857  0.000000      2.000000
 -0.142857  0.142857  0.000000      1.000000
  0.142857  0.285714  0.000000      2.000000
  0.285714  0.285714  0.000000      2.000000
  0.428571  0.285714  0.000000      2.000000
 -0.428571  0.285714  0.000000      2.000000
 -0.285714  0.285714  0.000000      1.000000
  0.142857  0.428571  0.000000      2.000000
  0.285714  0.428571  0.000000      2.000000
  0.428571  0.428571  0.000000      2.000000
 -0.428571  0.428571  0.000000      1.000000
  0.142857 -0.428571  0.000000      2.000000
  0.285714 -0.428571  0.000000      2.000000
  0.428571 -0.428571  0.000000      1.000000
  0.142857 -0.285714  0.000000      2.000000
  0.285714 -0.285714  0.000000      1.000000
  0.142857 -0.142857  0.000000      1.000000
  0.000000  0.000000  0.142857      1.000000
  0.142857  0.000000  0.142857      2.000000
  0.285714  0.000000  0.142857      2.000000
  0.428571  0.000000  0.142857      2.000000
 -0.428571  0.000000  0.142857      2.000000
 -0.285714  0.000000  0.142857      2.000000
 -0.142857  0.000000  0.142857      2.000000
  0.142857  0.142857  0.142857      2.000000
  0.285714  0.142857  0.142857      2.000000
  0.428571  0.142857  0.142857      2.000000
 -0.428571  0.142857  0.142857      2.000000
 -0.285714  0.142857  0.142857      2.000000
 -0.142857  0.142857  0.142857      1.000000
  0.142857  0.285714  0.142857      2.000000
  0.285714  0.285714  0.142857      2.000000
  0.428571  0.285714  0.142857      2.000000
 -0.428571  0.285714  0.142857      2.000000
 -0.285714  0.285714  0.142857      1.000000
  0.142857  0.428571  0.142857      2.000000
  0.285714  0.428571  0.142857      2.000000
  0.428571  0.428571  0.142857      2.000000
 -0.428571  0.428571  0.142857      1.000000
  0.142857 -0.428571  0.142857      2.000000
  0.285714 -0.428571  0.142857      2.000000
  0.428571 -0.428571  0.142857      1.000000
  0.142857 -0.285714  0.142857      2.000000
  0.285714 -0.285714  0.142857      1.000000
  0.142857 -0.142857  0.142857      1.000000
  0.000000  0.000000  0.285714      1.000000
  0.142857  0.000000  0.285714      2.000000
  0.285714  0.000000  0.285714      2.000000
  0.428571  0.000000  0.285714      2.000000
 -0.428571  0.000000  0.285714      2.000000
 -0.285714  0.000000  0.285714      2.000000
 -0.142857  0.000000  0.285714      2.000000
  0.142857  0.142857  0.285714      2.000000
  0.285714  0.142857  0.285714      2.000000
  0.428571  0.142857  0.285714      2.000000
 -0.428571  0.142857  0.285714      2.000000
 -0.285714  0.142857  0.285714      2.000000
 -0.142857  0.142857  0.285714      1.000000
  0.142857  0.285714  0.285714      2.000000
  0.285714  0.285714  0.285714      2.000000
  0.428571  0.285714  0.285714      2.000000
 -0.428571  0.285714  0.285714      2.000000
 -0.285714  0.285714  0.285714      1.000000
  0.142857  0.428571  0.285714      2.000000
  0.285714  0.428571  0.285714      2.000000
  0.428571  0.428571  0.285714      2.000000
 -0.428571  0.428571  0.285714      1.000000
  0.142857 -0.428571  0.285714      2.000000
  0.285714 -0.428571  0.285714      2.000000
  0.428571 -0.428571  0.285714      1.000000
  0.142857 -0.285714  0.285714      2.000000
  0.285714 -0.285714  0.285714      1.000000
  0.142857 -0.142857  0.285714      1.000000
  0.000000  0.000000  0.428571      1.000000
  0.142857  0.000000  0.428571      2.000000
  0.285714  0.000000  0.428571      2.000000
  0.428571  0.000000  0.428571      2.000000
 -0.428571  0.000000  0.428571      2.000000
 -0.285714  0.000000  0.428571      2.000000
 -0.142857  0.000000  0.428571      2.000000
  0.142857  0.142857  0.428571      2.000000
  0.285714  0.142857  0.428571      2.000000
  0.428571  0.142857  0.428571      2.000000
 -0.428571  0.142857  0.428571      2.000000
 -0.285714  0.142857  0.428571      2.000000
 -0.142857  0.142857  0.428571      1.000000
  0.142857  0.285714  0.428571      2.000000
  0.285714  0.285714  0.428571      2.000000
  0.428571  0.285714  0.428571      2.000000
 -0.428571  0.285714  0.428571      2.000000
 -0.285714  0.285714  0.428571      1.000000
  0.142857  0.428571  0.428571      2.000000
  0.285714  0.428571  0.428571      2.000000
  0.428571  0.428571  0.428571      2.000000
 -0.428571  0.428571  0.428571      1.000000
  0.142857 -0.428571  0.428571      2.000000
  0.285714 -0.428571  0.428571      2.000000
  0.428571 -0.428571  0.428571      1.000000
  0.142857 -0.285714  0.428571      2.000000
  0.285714 -0.285714  0.428571      1.000000
  0.142857 -0.142857  0.428571      1.000000
  0.000000  0.000000 -0.428571      1.000000
  0.142857  0.000000 -0.428571      2.000000
  0.285714  0.000000 -0.428571      2.000000
  0.428571  0.000000 -0.428571      2.000000
 -0.428571  0.000000 -0.428571      2.000000
 -0.285714  0.000000 -0.428571      2.000000
 -0.142857  0.000000 -0.428571      2.000000
  0.142857  0.142857 -0.428571      2.000000
  0.285714  0.142857 -0.428571      2.000000
  0.428571  0.142857 -0.428571      2.000000
 -0.428571  0.142857 -0.428571      2.000000
 -0.285714  0.142857 -0.428571      2.000000
 -0.142857  0.142857 -0.428571      1.000000
  0.142857  0.285714 -0.428571      2.000000
  0.285714  0.285714 -0.428571      2.000000
  0.428571  0.285714 -0.428571      2.000000
 -0.428571  0.285714 -0.428571      2.000000
 -0.285714  0.285714 -0.428571      1.000000
  0.142857  0.428571 -0.428571      2.000000
  0.285714  0.428571 -0.428571      2.000000
  0.428571  0.428571 -0.428571      2.000000
 -0.428571  0.428571 -0.428571      1.000000
  0.142857 -0.428571 -0.428571      2.000000
  0.285714 -0.428571 -0.428571      2.000000
  0.428571 -0.428571 -0.428571      1.000000
  0.142857 -0.285714 -0.428571      2.000000
  0.285714 -0.285714 -0.428571      1.000000
  0.142857 -0.142857 -0.428571      1.000000
  0.000000  0.000000 -0.285714      1.000000
  0.142857  0.000000 -0.285714      2.000000
  0.285714  0.000000 -0.285714      2.000000
  0.428571  0.000000 -0.285714      2.000000
 -0.428571  0.000000 -0.285714      2.000000
 -0.285714  0.000000 -0.285714      2.000000
 -0.142857  0.000000 -0.285714      2.000000
  0.142857  0.142857 -0.285714      2.000000
  0.285714  0.142857 -0.285714      2.000000
  0.428571  0.142857 -0.285714      2.000000
 -0.428571  0.142857 -0.285714      2.000000
 -0.285714  0.142857 -0.285714      2.000000
 -0.142857  0.142857 -0.285714      1.000000
  0.142857  0.285714 -0.285714      2.000000
  0.285714  0.285714 -0.285714      2.000000
  0.428571  0.285714 -0.285714      2.000000
 -0.428571  0.285714 -0.285714      2.000000
 -0.285714  0.285714 -0.285714      1.000000
  0.142857  0.428571 -0.285714      2.000000
  0.285714  0.428571 -0.285714      2.000000
  0.428571  0.428571 -0.285714      2.000000
 -0.428571  0.428571 -0.285714      1.000000
  0.142857 -0.428571 -0.285714      2.000000
  0.285714 -0.428571 -0.285714      2.000000
  0.428571 -0.428571 -0.285714      1.000000
  0.142857 -0.285714 -0.285714      2.000000
  0.285714 -0.285714 -0.285714      1.000000
  0.142857 -0.142857 -0.285714      1.000000
  0.000000  0.000000 -0.142857      1.000000
  0.142857  0.000000 -0.142857      2.000000
  0.285714  0.000000 -0.142857      2.000000
  0.428571  0.000000 -0.142857      2.000000
 -0.428571  0.000000 -0.142857      2.000000
 -0.285714  0.000000 -0.142857      2.000000
 -0.142857  0.000000 -0.142857      2.000000
  0.142857  0.142857 -0.142857      2.000000
  0.285714  0.142857 -0.142857      2.000000
  0.428571  0.142857 -0.142857      2.000000
 -0.428571  0.142857 -0.142857      2.000000
 -0.285714  0.142857 -0.142857      2.000000
 -0.142857  0.142857 -0.142857      1.000000
  0.142857  0.285714 -0.142857      2.000000
  0.285714  0.285714 -0.142857      2.000000
  0.428571  0.285714 -0.142857      2.000000
 -0.428571  0.285714 -0.142857      2.000000
 -0.285714  0.285714 -0.142857      1.000000
  0.142857  0.428571 -0.142857      2.000000
  0.285714  0.428571 -0.142857      2.000000
  0.428571  0.428571 -0.142857      2.000000
 -0.428571  0.428571 -0.142857      1.000000
  0.142857 -0.428571 -0.142857      2.000000
  0.285714 -0.428571 -0.142857      2.000000
  0.428571 -0.428571 -0.142857      1.000000
  0.142857 -0.285714 -0.142857      2.000000
  0.285714 -0.285714 -0.142857      1.000000
  0.142857 -0.142857 -0.142857      1.000000
 
 Following cartesian coordinates:
            Coordinates               Weight
  0.000000  0.000000  0.000000      1.000000
  0.016232  0.000000  0.000000      2.000000
  0.032464  0.000000  0.000000      2.000000
  0.048696  0.000000  0.000000      2.000000
 -0.048696  0.000000  0.000000      2.000000
 -0.032464  0.000000  0.000000      2.000000
 -0.016232  0.000000  0.000000      2.000000
  0.016232  0.016232  0.000000      2.000000
  0.032464  0.016232  0.000000      2.000000
  0.048696  0.016232  0.000000      2.000000
 -0.048696  0.016232  0.000000      2.000000
 -0.032464  0.016232  0.000000      2.000000
 -0.016232  0.016232  0.000000      1.000000
  0.016232  0.032464  0.000000      2.000000
  0.032464  0.032464  0.000000      2.000000
  0.048696  0.032464  0.000000      2.000000
 -0.048696  0.032464  0.000000      2.000000
 -0.032464  0.032464  0.000000      1.000000
  0.016232  0.048696  0.000000      2.000000
  0.032464  0.048696  0.000000      2.000000
  0.048696  0.048696  0.000000      2.000000
 -0.048696  0.048696  0.000000      1.000000
  0.016232 -0.048696  0.000000      2.000000
  0.032464 -0.048696  0.000000      2.000000
  0.048696 -0.048696  0.000000      1.000000
  0.016232 -0.032464  0.000000      2.000000
  0.032464 -0.032464  0.000000      1.000000
  0.016232 -0.016232  0.000000      1.000000
  0.000000  0.000000  0.011261      1.000000
  0.016232  0.000000  0.011261      2.000000
  0.032464  0.000000  0.011261      2.000000
  0.048696  0.000000  0.011261      2.000000
 -0.048696  0.000000  0.011261      2.000000
 -0.032464  0.000000  0.011261      2.000000
 -0.016232  0.000000  0.011261      2.000000
  0.016232  0.016232  0.011261      2.000000
  0.032464  0.016232  0.011261      2.000000
  0.048696  0.016232  0.011261      2.000000
 -0.048696  0.016232  0.011261      2.000000
 -0.032464  0.016232  0.011261      2.000000
 -0.016232  0.016232  0.011261      1.000000
  0.016232  0.032464  0.011261      2.000000
  0.032464  0.032464  0.011261      2.000000
  0.048696  0.032464  0.011261      2.000000
 -0.048696  0.032464  0.011261      2.000000
 -0.032464  0.032464  0.011261      1.000000
  0.016232  0.048696  0.011261      2.000000
  0.032464  0.048696  0.011261      2.000000
  0.048696  0.048696  0.011261      2.000000
 -0.048696  0.048696  0.011261      1.000000
  0.016232 -0.048696  0.011261      2.000000
  0.032464 -0.048696  0.011261      2.000000
  0.048696 -0.048696  0.011261      1.000000
  0.016232 -0.032464  0.011261      2.000000
  0.032464 -0.032464  0.011261      1.000000
  0.016232 -0.016232  0.011261      1.000000
  0.000000  0.000000  0.022523      1.000000
  0.016232  0.000000  0.022523      2.000000
  0.032464  0.000000  0.022523      2.000000
  0.048696  0.000000  0.022523      2.000000
 -0.048696  0.000000  0.022523      2.000000
 -0.032464  0.000000  0.022523      2.000000
 -0.016232  0.000000  0.022523      2.000000
  0.016232  0.016232  0.022523      2.000000
  0.032464  0.016232  0.022523      2.000000
  0.048696  0.016232  0.022523      2.000000
 -0.048696  0.016232  0.022523      2.000000
 -0.032464  0.016232  0.022523      2.000000
 -0.016232  0.016232  0.022523      1.000000
  0.016232  0.032464  0.022523      2.000000
  0.032464  0.032464  0.022523      2.000000
  0.048696  0.032464  0.022523      2.000000
 -0.048696  0.032464  0.022523      2.000000
 -0.032464  0.032464  0.022523      1.000000
  0.016232  0.048696  0.022523      2.000000
  0.032464  0.048696  0.022523      2.000000
  0.048696  0.048696  0.022523      2.000000
 -0.048696  0.048696  0.022523      1.000000
  0.016232 -0.048696  0.022523      2.000000
  0.032464 -0.048696  0.022523      2.000000
  0.048696 -0.048696  0.022523      1.000000
  0.016232 -0.032464  0.022523      2.000000
  0.032464 -0.032464  0.022523      1.000000
  0.016232 -0.016232  0.022523      1.000000
  0.000000  0.000000  0.033784      1.000000
  0.016232  0.000000  0.033784      2.000000
  0.032464  0.000000  0.033784      2.000000
  0.048696  0.000000  0.033784      2.000000
 -0.048696  0.000000  0.033784      2.000000
 -0.032464  0.000000  0.033784      2.000000
 -0.016232  0.000000  0.033784      2.000000
  0.016232  0.016232  0.033784      2.000000
  0.032464  0.016232  0.033784      2.000000
  0.048696  0.016232  0.033784      2.000000
 -0.048696  0.016232  0.033784      2.000000
 -0.032464  0.016232  0.033784      2.000000
 -0.016232  0.016232  0.033784      1.000000
  0.016232  0.032464  0.033784      2.000000
  0.032464  0.032464  0.033784      2.000000
  0.048696  0.032464  0.033784      2.000000
 -0.048696  0.032464  0.033784      2.000000
 -0.032464  0.032464  0.033784      1.000000
  0.016232  0.048696  0.033784      2.000000
  0.032464  0.048696  0.033784      2.000000
  0.048696  0.048696  0.033784      2.000000
 -0.048696  0.048696  0.033784      1.000000
  0.016232 -0.048696  0.033784      2.000000
  0.032464 -0.048696  0.033784      2.000000
  0.048696 -0.048696  0.033784      1.000000
  0.016232 -0.032464  0.033784      2.000000
  0.032464 -0.032464  0.033784      1.000000
  0.016232 -0.016232  0.033784      1.000000
  0.000000  0.000000 -0.033784      1.000000
  0.016232  0.000000 -0.033784      2.000000
  0.032464  0.000000 -0.033784      2.000000
  0.048696  0.000000 -0.033784      2.000000
 -0.048696  0.000000 -0.033784      2.000000
 -0.032464  0.000000 -0.033784      2.000000
 -0.016232  0.000000 -0.033784      2.000000
  0.016232  0.016232 -0.033784      2.000000
  0.032464  0.016232 -0.033784      2.000000
  0.048696  0.016232 -0.033784      2.000000
 -0.048696  0.016232 -0.033784      2.000000
 -0.032464  0.016232 -0.033784      2.000000
 -0.016232  0.016232 -0.033784      1.000000
  0.016232  0.032464 -0.033784      2.000000
  0.032464  0.032464 -0.033784      2.000000
  0.048696  0.032464 -0.033784      2.000000
 -0.048696  0.032464 -0.033784      2.000000
 -0.032464  0.032464 -0.033784      1.000000
  0.016232  0.048696 -0.033784      2.000000
  0.032464  0.048696 -0.033784      2.000000
  0.048696  0.048696 -0.033784      2.000000
 -0.048696  0.048696 -0.033784      1.000000
  0.016232 -0.048696 -0.033784      2.000000
  0.032464 -0.048696 -0.033784      2.000000
  0.048696 -0.048696 -0.033784      1.000000
  0.016232 -0.032464 -0.033784      2.000000
  0.032464 -0.032464 -0.033784      1.000000
  0.016232 -0.016232 -0.033784      1.000000
  0.000000  0.000000 -0.022523      1.000000
  0.016232  0.000000 -0.022523      2.000000
  0.032464  0.000000 -0.022523      2.000000
  0.048696  0.000000 -0.022523      2.000000
 -0.048696  0.000000 -0.022523      2.000000
 -0.032464  0.000000 -0.022523      2.000000
 -0.016232  0.000000 -0.022523      2.000000
  0.016232  0.016232 -0.022523      2.000000
  0.032464  0.016232 -0.022523      2.000000
  0.048696  0.016232 -0.022523      2.000000
 -0.048696  0.016232 -0.022523      2.000000
 -0.032464  0.016232 -0.022523      2.000000
 -0.016232  0.016232 -0.022523      1.000000
  0.016232  0.032464 -0.022523      2.000000
  0.032464  0.032464 -0.022523      2.000000
  0.048696  0.032464 -0.022523      2.000000
 -0.048696  0.032464 -0.022523      2.000000
 -0.032464  0.032464 -0.022523      1.000000
  0.016232  0.048696 -0.022523      2.000000
  0.032464  0.048696 -0.022523      2.000000
  0.048696  0.048696 -0.022523      2.000000
 -0.048696  0.048696 -0.022523      1.000000
  0.016232 -0.048696 -0.022523      2.000000
  0.032464 -0.048696 -0.022523      2.000000
  0.048696 -0.048696 -0.022523      1.000000
  0.016232 -0.032464 -0.022523      2.000000
  0.032464 -0.032464 -0.022523      1.000000
  0.016232 -0.016232 -0.022523      1.000000
  0.000000  0.000000 -0.011261      1.000000
  0.016232  0.000000 -0.011261      2.000000
  0.032464  0.000000 -0.011261      2.000000
  0.048696  0.000000 -0.011261      2.000000
 -0.048696  0.000000 -0.011261      2.000000
 -0.032464  0.000000 -0.011261      2.000000
 -0.016232  0.000000 -0.011261      2.000000
  0.016232  0.016232 -0.011261      2.000000
  0.032464  0.016232 -0.011261      2.000000
  0.048696  0.016232 -0.011261      2.000000
 -0.048696  0.016232 -0.011261      2.000000
 -0.032464  0.016232 -0.011261      2.000000
 -0.016232  0.016232 -0.011261      1.000000
  0.016232  0.032464 -0.011261      2.000000
  0.032464  0.032464 -0.011261      2.000000
  0.048696  0.032464 -0.011261      2.000000
 -0.048696  0.032464 -0.011261      2.000000
 -0.032464  0.032464 -0.011261      1.000000
  0.016232  0.048696 -0.011261      2.000000
  0.032464  0.048696 -0.011261      2.000000
  0.048696  0.048696 -0.011261      2.000000
 -0.048696  0.048696 -0.011261      1.000000
  0.016232 -0.048696 -0.011261      2.000000
  0.032464 -0.048696 -0.011261      2.000000
  0.048696 -0.048696 -0.011261      1.000000
  0.016232 -0.032464 -0.011261      2.000000
  0.032464 -0.032464 -0.011261      1.000000
  0.016232 -0.016232 -0.011261      1.000000
 


--------------------------------------------------------------------------------------------------------




 Dimension of arrays:
   k-points           NKPTS =    196   k-points in BZ     NKDIM =    196   number of bands    NBANDS=    216
   number of dos      NEDOS =   2401   number of ions     NIONS =     48
   non local maximal  LDIM  =      5   non local SUM 2l+1 LMDIM =     13
   total plane-waves  NPLWV = 302400
   max r-space proj   IRMAX =   6359   max aug-charges    IRDMAX=  35415
   dimension x,y,z NGX =    60 NGY =   60 NGZ =   84
   dimension x,y,z NGXF=   120 NGYF=  120 NGZF=  168
   support grid    NGXF=   120 NGYF=  120 NGZF=  168
   ions per type =              24   4   4  12   4
   NGX,Y,Z   is equivalent  to a cutoff of  11.33, 11.33, 11.01 a.u.
   NGXF,Y,Z  is equivalent  to a cutoff of  22.67, 22.67, 22.02 a.u.

 SYSTEM =  unknown system                          
 POSCAR =  CH3PbI3 tetragonal                      

 Startparameter for this run:
   NWRITE =      2    write-flag & timer
   PREC   = accura    normal or accurate (medium, high low for compatibility)
   ISTART =      0    job   : 0-new  1-cont  2-samecut
   ICHARG =      2    charge: 1-file 2-atom 10-const
   ISPIN  =      1    spin polarized calculation?
   LNONCOLLINEAR =      T non collinear calculations
   LSORBIT =      T    spin-orbit coupling
   INIWAV =      1    electr: 0-lowe 1-rand  2-diag
   LASPH  =      F    aspherical Exc in radial PAW
   METAGGA=      F    non-selfconsistent MetaGGA calc.

 Electronic Relaxation 1
   ENCUT  =  400.0 eV  29.40 Ry    5.42 a.u.  14.35 14.35 20.69*2*pi/ulx,y,z
   ENINI  =  400.0     initial cutoff
   ENAUG  =  627.1 eV  augmentation charge cutoff
   NELM   =     60;   NELMIN=  2; NELMDL=  0     # of ELM steps 
   EDIFF  = 0.1E-04   stopping-criterion for ELM
   LREAL  =      T    real-space projection
   NLSPLINE    = F    spline interpolate recip. space projectors
   LCOMPAT=      F    compatible to vasp.4.4
   GGA_COMPAT  = T    GGA compatible to vasp.4.4-vasp.4.6
   LMAXPAW     = -100 max onsite density
   LMAXMIX     =    4 max onsite mixed and CHGCAR
   VOSKOWN=      0    Vosko Wilk Nusair interpolation
   ROPT   =   -0.00025  -0.00025  -0.00025  -0.00025
   ROPT   =   -0.00025
 Ionic relaxation
   EDIFFG = -.1E-01   stopping-criterion for IOM
   NSW    =      0    number of steps for IOM
   NBLOCK =      1;   KBLOCK =      1    inner block; outer block 
   IBRION =     -1    ionic relax: 0-MD 1-quasi-New 2-CG
   NFREE  =      0    steps in history (QN), initial steepest desc. (CG)
   ISIF   =      2    stress and relaxation
   IWAVPR =     10    prediction:  0-non 1-charg 2-wave 3-comb
   ISYM   =      2    0-nonsym 1-usesym 2-fastsym
   LCORR  =      T    Harris-Foulkes like correction to forces

   POTIM  = 0.5000    time-step for ionic-motion
   TEIN   =    0.0    initial temperature
   TEBEG  =    0.0;   TEEND  =   0.0 temperature during run
   SMASS  =  -3.00    Nose mass-parameter (am)
   estimated Nose-frequenzy (Omega)   =  0.10E-29 period in steps =****** mass=  -0.177E-26a.u.
   SCALEE = 1.0000    scale energy and forces
   NPACO  =    256;   APACO  = 16.0  distance and # of slots for P.C.
   PSTRESS=    0.0 pullay stress

  Mass of Ions in am
   POMASS =   1.00207.20 12.01126.90 14.00
  Ionic Valenz
   ZVAL   =   1.00  4.00  4.00  7.00  5.00
  Atomic Wigner-Seitz radii
   RWIGS  =  -1.00 -1.00 -1.00 -1.00 -1.00
  virtual crystal weights 
   VCA    =   1.00  1.00  1.00  1.00  1.00
   NELECT =     160.0000    total number of electrons
   NUPDOWN=       0.0000    fix difference up-down

 DOS related values:
   EMIN   = -25.00;   EMAX   = 10.00  energy-range for DOS
   EFERMI =   0.00
   ISMEAR =     0;   SIGMA  =   0.03  broadening in eV -4-tet -1-fermi 0-gaus

 Electronic relaxation 2 (details)
   IALGO  =     38    algorithm
   LDIAG  =      T    sub-space diagonalisation (order eigenvalues)
   LSUBROT=      F    optimize rotation matrix (better conditioning)
   TURBO    =      0    0=normal 1=particle mesh
   IRESTART =      0    0=no restart 2=restart with 2 vectors
   NREBOOT  =      0    no. of reboots
   NMIN     =      0    reboot dimension
   EREF     =   0.00    reference energy to select bands
   IMIX   =      4    mixing-type and parameters
     AMIX     =   0.40;   BMIX     =  1.00
     AMIX_MAG =   1.60;   BMIX_MAG =  1.00
     AMIN     =   0.10
     WC   =   100.;   INIMIX=   1;  MIXPRE=   1;  MAXMIX= -45

 Intra band minimization:
   WEIMIN = 0.0000     energy-eigenvalue tresh-hold
   EBREAK =  0.12E-07  absolut break condition
   DEPER  =   0.30     relativ break condition  

   TIME   =   0.40     timestep for ELM

  volume/ion in A,a.u.               =      20.47       138.14
  Fermi-wavevector in a.u.,A,eV,Ry     =   0.893975  1.689367 10.873653  0.799191
  Thomas-Fermi vector in A             =   2.016121
 
 Write flags
   LWAVE        =      T    write WAVECAR
   LDOWNSAMPLE  =      F    k-point downsampling of WAVECAR
   LCHARG       =      T    write CHGCAR
   LVTOT        =      F    write LOCPOT, total local potential
   LVHAR        =      F    write LOCPOT, Hartree potential only
   LELF         =      F    write electronic localiz. function (ELF)
   LORBIT       =     11    0 simple, 1 ext, 2 COOP (PROOUT), +10 PAW based schemes


 Dipole corrections
   LMONO  =      F    monopole corrections only (constant potential shift)
   LDIPOL =      F    correct potential (dipole corrections)
   IDIPOL =      0    1-x, 2-y, 3-z, 4-all directions 
   EPSILON=  1.0000000 bulk dielectric constant

 Exchange correlation treatment:
   GGA     =    PE    GGA type
   LEXCH   =     8    internal setting for exchange type
   VOSKOWN=      0    Vosko Wilk Nusair interpolation
   LHFCALC =     F    Hartree Fock is set to
   LHFONE  =     F    Hartree Fock one center treatment
   AEXX    =    0.0000 exact exchange contribution

 Linear response parameters
   LEPSILON=     F    determine dielectric tensor
   LRPA    =     F    only Hartree local field effects (RPA)
   LNABLA  =     F    use nabla operator in PAW spheres
   LVEL    =     F    velocity operator in full k-point grid
   LINTERFAST=   F  fast interpolation
   KINTER  =     0    interpolate to denser k-point grid
   CSHIFT  =0.1000    complex shift for real part using Kramers Kronig
   OMEGAMAX=  -1.0    maximum frequency
   DEG_THRESHOLD= 0.2000000E-02 threshold for treating states as degnerate
   RTIME   =   -0.100 relaxation time in fs
  (WPLASMAI=    0.000 imaginary part of plasma frequency in eV, 0.658/RTIME)
   DFIELD  = 0.0000000 0.0000000 0.0000000 field for delta impulse in time
 
 Orbital magnetization related:
   ORBITALMAG=     F  switch on orbital magnetization
   LCHIMAG   =     F  perturbation theory with respect to B field
   DQ        =  0.001000  dq finite difference perturbation B field
   LLRAUG    =     F  two centre corrections for induced B field



--------------------------------------------------------------------------------------------------------


 Static calculation
 charge density and potential will be updated during run
 non collinear spin polarized calculation
 Variant of blocked Davidson
 Davidson routine will perform the subspace rotation
 perform sub-space diagonalisation
    after iterative eigenvector-optimisation
 modified Broyden-mixing scheme, WC =      100.0
 initial mixing is a Kerker type mixing with AMIX =  0.4000 and BMIX =      1.0000
 Hartree-type preconditioning will be used
 using additional bands          136
 real space projection scheme for non local part
 use partial core corrections
 calculate Harris-corrections to forces 
   (improved forces if not selfconsistent)
 use gradient corrections 
 use of overlap-Matrix (Vanderbilt PP)
 Gauss-broadening in eV      SIGMA  =   0.03


--------------------------------------------------------------------------------------------------------


  energy-cutoff  :      400.00
  volume of cell :      982.58
      direct lattice vectors                 reciprocal lattice vectors
     8.800900459  0.000000000  0.000000000     0.113624737  0.000000000  0.000000000
     0.000000000  8.800900459  0.000000000     0.000000000  0.113624737  0.000000000
     0.000000000  0.000000000 12.685700417     0.000000000  0.000000000  0.078828915

  length of vectors
     8.800900459  8.800900459 12.685700417     0.113624737  0.113624737  0.078828915


 
 k-points in units of 2pi/SCALE and weight: Automatic Mesh                          
   0.00000000  0.00000000  0.00000000       0.003
   0.01623211  0.00000000  0.00000000       0.006
   0.03246421  0.00000000  0.00000000       0.006
   0.04869632  0.00000000  0.00000000       0.006
  -0.04869632  0.00000000  0.00000000       0.006
  -0.03246421  0.00000000  0.00000000       0.006
  -0.01623211  0.00000000  0.00000000       0.006
   0.01623211  0.01623211  0.00000000       0.006
   0.03246421  0.01623211  0.00000000       0.006
   0.04869632  0.01623211  0.00000000       0.006
  -0.04869632  0.01623211  0.00000000       0.006
  -0.03246421  0.01623211  0.00000000       0.006
  -0.01623211  0.01623211  0.00000000       0.003
   0.01623211  0.03246421  0.00000000       0.006
   0.03246421  0.03246421  0.00000000       0.006
   0.04869632  0.03246421  0.00000000       0.006
  -0.04869632  0.03246421  0.00000000       0.006
  -0.03246421  0.03246421  0.00000000       0.003
   0.01623211  0.04869632  0.00000000       0.006
   0.03246421  0.04869632  0.00000000       0.006
   0.04869632  0.04869632  0.00000000       0.006
  -0.04869632  0.04869632  0.00000000       0.003
   0.01623211 -0.04869632  0.00000000       0.006
   0.03246421 -0.04869632  0.00000000       0.006
   0.04869632 -0.04869632  0.00000000       0.003
   0.01623211 -0.03246421  0.00000000       0.006
   0.03246421 -0.03246421  0.00000000       0.003
   0.01623211 -0.01623211  0.00000000       0.003
   0.00000000  0.00000000  0.01126127       0.003
   0.01623211  0.00000000  0.01126127       0.006
   0.03246421  0.00000000  0.01126127       0.006
   0.04869632  0.00000000  0.01126127       0.006
  -0.04869632  0.00000000  0.01126127       0.006
  -0.03246421  0.00000000  0.01126127       0.006
  -0.01623211  0.00000000  0.01126127       0.006
   0.01623211  0.01623211  0.01126127       0.006
   0.03246421  0.01623211  0.01126127       0.006
   0.04869632  0.01623211  0.01126127       0.006
  -0.04869632  0.01623211  0.01126127       0.006
  -0.03246421  0.01623211  0.01126127       0.006
  -0.01623211  0.01623211  0.01126127       0.003
   0.01623211  0.03246421  0.01126127       0.006
   0.03246421  0.03246421  0.01126127       0.006
   0.04869632  0.03246421  0.01126127       0.006
  -0.04869632  0.03246421  0.01126127       0.006
  -0.03246421  0.03246421  0.01126127       0.003
   0.01623211  0.04869632  0.01126127       0.006
   0.03246421  0.04869632  0.01126127       0.006
   0.04869632  0.04869632  0.01126127       0.006
  -0.04869632  0.04869632  0.01126127       0.003
   0.01623211 -0.04869632  0.01126127       0.006
   0.03246421 -0.04869632  0.01126127       0.006
   0.04869632 -0.04869632  0.01126127       0.003
   0.01623211 -0.03246421  0.01126127       0.006
   0.03246421 -0.03246421  0.01126127       0.003
   0.01623211 -0.01623211  0.01126127       0.003
   0.00000000  0.00000000  0.02252255       0.003
   0.01623211  0.00000000  0.02252255       0.006
   0.03246421  0.00000000  0.02252255       0.006
   0.04869632  0.00000000  0.02252255       0.006
  -0.04869632  0.00000000  0.02252255       0.006
  -0.03246421  0.00000000  0.02252255       0.006
  -0.01623211  0.00000000  0.02252255       0.006
   0.01623211  0.01623211  0.02252255       0.006
   0.03246421  0.01623211  0.02252255       0.006
   0.04869632  0.01623211  0.02252255       0.006
  -0.04869632  0.01623211  0.02252255       0.006
  -0.03246421  0.01623211  0.02252255       0.006
  -0.01623211  0.01623211  0.02252255       0.003
   0.01623211  0.03246421  0.02252255       0.006
   0.03246421  0.03246421  0.02252255       0.006
   0.04869632  0.03246421  0.02252255       0.006
  -0.04869632  0.03246421  0.02252255       0.006
  -0.03246421  0.03246421  0.02252255       0.003
   0.01623211  0.04869632  0.02252255       0.006
   0.03246421  0.04869632  0.02252255       0.006
   0.04869632  0.04869632  0.02252255       0.006
  -0.04869632  0.04869632  0.02252255       0.003
   0.01623211 -0.04869632  0.02252255       0.006
   0.03246421 -0.04869632  0.02252255       0.006
   0.04869632 -0.04869632  0.02252255       0.003
   0.01623211 -0.03246421  0.02252255       0.006
   0.03246421 -0.03246421  0.02252255       0.003
   0.01623211 -0.01623211  0.02252255       0.003
   0.00000000  0.00000000  0.03378382       0.003
   0.01623211  0.00000000  0.03378382       0.006
   0.03246421  0.00000000  0.03378382       0.006
   0.04869632  0.00000000  0.03378382       0.006
  -0.04869632  0.00000000  0.03378382       0.006
  -0.03246421  0.00000000  0.03378382       0.006
  -0.01623211  0.00000000  0.03378382       0.006
   0.01623211  0.01623211  0.03378382       0.006
   0.03246421  0.01623211  0.03378382       0.006
   0.04869632  0.01623211  0.03378382       0.006
  -0.04869632  0.01623211  0.03378382       0.006
  -0.03246421  0.01623211  0.03378382       0.006
  -0.01623211  0.01623211  0.03378382       0.003
   0.01623211  0.03246421  0.03378382       0.006
   0.03246421  0.03246421  0.03378382       0.006
   0.04869632  0.03246421  0.03378382       0.006
  -0.04869632  0.03246421  0.03378382       0.006
  -0.03246421  0.03246421  0.03378382       0.003
   0.01623211  0.04869632  0.03378382       0.006
   0.03246421  0.04869632  0.03378382       0.006
   0.04869632  0.04869632  0.03378382       0.006
  -0.04869632  0.04869632  0.03378382       0.003
   0.01623211 -0.04869632  0.03378382       0.006
   0.03246421 -0.04869632  0.03378382       0.006
   0.04869632 -0.04869632  0.03378382       0.003
   0.01623211 -0.03246421  0.03378382       0.006
   0.03246421 -0.03246421  0.03378382       0.003
   0.01623211 -0.01623211  0.03378382       0.003
   0.00000000  0.00000000 -0.03378382       0.003
   0.01623211  0.00000000 -0.03378382       0.006
   0.03246421  0.00000000 -0.03378382       0.006
   0.04869632  0.00000000 -0.03378382       0.006
  -0.04869632  0.00000000 -0.03378382       0.006
  -0.03246421  0.00000000 -0.03378382       0.006
  -0.01623211  0.00000000 -0.03378382       0.006
   0.01623211  0.01623211 -0.03378382       0.006
   0.03246421  0.01623211 -0.03378382       0.006
   0.04869632  0.01623211 -0.03378382       0.006
  -0.04869632  0.01623211 -0.03378382       0.006
  -0.03246421  0.01623211 -0.03378382       0.006
  -0.01623211  0.01623211 -0.03378382       0.003
   0.01623211  0.03246421 -0.03378382       0.006
   0.03246421  0.03246421 -0.03378382       0.006
   0.04869632  0.03246421 -0.03378382       0.006
  -0.04869632  0.03246421 -0.03378382       0.006
  -0.03246421  0.03246421 -0.03378382       0.003
   0.01623211  0.04869632 -0.03378382       0.006
   0.03246421  0.04869632 -0.03378382       0.006
   0.04869632  0.04869632 -0.03378382       0.006
  -0.04869632  0.04869632 -0.03378382       0.003
   0.01623211 -0.04869632 -0.03378382       0.006
   0.03246421 -0.04869632 -0.03378382       0.006
   0.04869632 -0.04869632 -0.03378382       0.003
   0.01623211 -0.03246421 -0.03378382       0.006
   0.03246421 -0.03246421 -0.03378382       0.003
   0.01623211 -0.01623211 -0.03378382       0.003
   0.00000000  0.00000000 -0.02252255       0.003
   0.01623211  0.00000000 -0.02252255       0.006
   0.03246421  0.00000000 -0.02252255       0.006
   0.04869632  0.00000000 -0.02252255       0.006
  -0.04869632  0.00000000 -0.02252255       0.006
  -0.03246421  0.00000000 -0.02252255       0.006
  -0.01623211  0.00000000 -0.02252255       0.006
   0.01623211  0.01623211 -0.02252255       0.006
   0.03246421  0.01623211 -0.02252255       0.006
   0.04869632  0.01623211 -0.02252255       0.006
  -0.04869632  0.01623211 -0.02252255       0.006
  -0.03246421  0.01623211 -0.02252255       0.006
  -0.01623211  0.01623211 -0.02252255       0.003
   0.01623211  0.03246421 -0.02252255       0.006
   0.03246421  0.03246421 -0.02252255       0.006
   0.04869632  0.03246421 -0.02252255       0.006
  -0.04869632  0.03246421 -0.02252255       0.006
  -0.03246421  0.03246421 -0.02252255       0.003
   0.01623211  0.04869632 -0.02252255       0.006
   0.03246421  0.04869632 -0.02252255       0.006
   0.04869632  0.04869632 -0.02252255       0.006
  -0.04869632  0.04869632 -0.02252255       0.003
   0.01623211 -0.04869632 -0.02252255       0.006
   0.03246421 -0.04869632 -0.02252255       0.006
   0.04869632 -0.04869632 -0.02252255       0.003
   0.01623211 -0.03246421 -0.02252255       0.006
   0.03246421 -0.03246421 -0.02252255       0.003
   0.01623211 -0.01623211 -0.02252255       0.003
   0.00000000  0.00000000 -0.01126127       0.003
   0.01623211  0.00000000 -0.01126127       0.006
   0.03246421  0.00000000 -0.01126127       0.006
   0.04869632  0.00000000 -0.01126127       0.006
  -0.04869632  0.00000000 -0.01126127       0.006
  -0.03246421  0.00000000 -0.01126127       0.006
  -0.01623211  0.00000000 -0.01126127       0.006
   0.01623211  0.01623211 -0.01126127       0.006
   0.03246421  0.01623211 -0.01126127       0.006
   0.04869632  0.01623211 -0.01126127       0.006
  -0.04869632  0.01623211 -0.01126127       0.006
  -0.03246421  0.01623211 -0.01126127       0.006
  -0.01623211  0.01623211 -0.01126127       0.003
   0.01623211  0.03246421 -0.01126127       0.006
   0.03246421  0.03246421 -0.01126127       0.006
   0.04869632  0.03246421 -0.01126127       0.006
  -0.04869632  0.03246421 -0.01126127       0.006
  -0.03246421  0.03246421 -0.01126127       0.003
   0.01623211  0.04869632 -0.01126127       0.006
   0.03246421  0.04869632 -0.01126127       0.006
   0.04869632  0.04869632 -0.01126127       0.006
  -0.04869632  0.04869632 -0.01126127       0.003
   0.01623211 -0.04869632 -0.01126127       0.006
   0.03246421 -0.04869632 -0.01126127       0.006
   0.04869632 -0.04869632 -0.01126127       0.003
   0.01623211 -0.03246421 -0.01126127       0.006
   0.03246421 -0.03246421 -0.01126127       0.003
   0.01623211 -0.01623211 -0.01126127       0.003
 
 k-points in reciprocal lattice and weights: Automatic Mesh                          
   0.00000000  0.00000000  0.00000000       0.003
   0.14285714  0.00000000  0.00000000       0.006
   0.28571429  0.00000000  0.00000000       0.006
   0.42857143  0.00000000  0.00000000       0.006
  -0.42857143  0.00000000  0.00000000       0.006
  -0.28571429  0.00000000  0.00000000       0.006
  -0.14285714  0.00000000  0.00000000       0.006
   0.14285714  0.14285714  0.00000000       0.006
   0.28571429  0.14285714  0.00000000       0.006
   0.42857143  0.14285714  0.00000000       0.006
  -0.42857143  0.14285714  0.00000000       0.006
  -0.28571429  0.14285714  0.00000000       0.006
  -0.14285714  0.14285714  0.00000000       0.003
   0.14285714  0.28571429  0.00000000       0.006
   0.28571429  0.28571429  0.00000000       0.006
   0.42857143  0.28571429  0.00000000       0.006
  -0.42857143  0.28571429  0.00000000       0.006
  -0.28571429  0.28571429  0.00000000       0.003
   0.14285714  0.42857143  0.00000000       0.006
   0.28571429  0.42857143  0.00000000       0.006
   0.42857143  0.42857143  0.00000000       0.006
  -0.42857143  0.42857143  0.00000000       0.003
   0.14285714 -0.42857143  0.00000000       0.006
   0.28571429 -0.42857143  0.00000000       0.006
   0.42857143 -0.42857143  0.00000000       0.003
   0.14285714 -0.28571429  0.00000000       0.006
   0.28571429 -0.28571429  0.00000000       0.003
   0.14285714 -0.14285714  0.00000000       0.003
   0.00000000  0.00000000  0.14285714       0.003
   0.14285714  0.00000000  0.14285714       0.006
   0.28571429  0.00000000  0.14285714       0.006
   0.42857143  0.00000000  0.14285714       0.006
  -0.42857143  0.00000000  0.14285714       0.006
  -0.28571429  0.00000000  0.14285714       0.006
  -0.14285714  0.00000000  0.14285714       0.006
   0.14285714  0.14285714  0.14285714       0.006
   0.28571429  0.14285714  0.14285714       0.006
   0.42857143  0.14285714  0.14285714       0.006
  -0.42857143  0.14285714  0.14285714       0.006
  -0.28571429  0.14285714  0.14285714       0.006
  -0.14285714  0.14285714  0.14285714       0.003
   0.14285714  0.28571429  0.14285714       0.006
   0.28571429  0.28571429  0.14285714       0.006
   0.42857143  0.28571429  0.14285714       0.006
  -0.42857143  0.28571429  0.14285714       0.006
  -0.28571429  0.28571429  0.14285714       0.003
   0.14285714  0.42857143  0.14285714       0.006
   0.28571429  0.42857143  0.14285714       0.006
   0.42857143  0.42857143  0.14285714       0.006
  -0.42857143  0.42857143  0.14285714       0.003
   0.14285714 -0.42857143  0.14285714       0.006
   0.28571429 -0.42857143  0.14285714       0.006
   0.42857143 -0.42857143  0.14285714       0.003
   0.14285714 -0.28571429  0.14285714       0.006
   0.28571429 -0.28571429  0.14285714       0.003
   0.14285714 -0.14285714  0.14285714       0.003
   0.00000000  0.00000000  0.28571429       0.003
   0.14285714  0.00000000  0.28571429       0.006
   0.28571429  0.00000000  0.28571429       0.006
   0.42857143  0.00000000  0.28571429       0.006
  -0.42857143  0.00000000  0.28571429       0.006
  -0.28571429  0.00000000  0.28571429       0.006
  -0.14285714  0.00000000  0.28571429       0.006
   0.14285714  0.14285714  0.28571429       0.006
   0.28571429  0.14285714  0.28571429       0.006
   0.42857143  0.14285714  0.28571429       0.006
  -0.42857143  0.14285714  0.28571429       0.006
  -0.28571429  0.14285714  0.28571429       0.006
  -0.14285714  0.14285714  0.28571429       0.003
   0.14285714  0.28571429  0.28571429       0.006
   0.28571429  0.28571429  0.28571429       0.006
   0.42857143  0.28571429  0.28571429       0.006
  -0.42857143  0.28571429  0.28571429       0.006
  -0.28571429  0.28571429  0.28571429       0.003
   0.14285714  0.42857143  0.28571429       0.006
   0.28571429  0.42857143  0.28571429       0.006
   0.42857143  0.42857143  0.28571429       0.006
  -0.42857143  0.42857143  0.28571429       0.003
   0.14285714 -0.42857143  0.28571429       0.006
   0.28571429 -0.42857143  0.28571429       0.006
   0.42857143 -0.42857143  0.28571429       0.003
   0.14285714 -0.28571429  0.28571429       0.006
   0.28571429 -0.28571429  0.28571429       0.003
   0.14285714 -0.14285714  0.28571429       0.003
   0.00000000  0.00000000  0.42857143       0.003
   0.14285714  0.00000000  0.42857143       0.006
   0.28571429  0.00000000  0.42857143       0.006
   0.42857143  0.00000000  0.42857143       0.006
  -0.42857143  0.00000000  0.42857143       0.006
  -0.28571429  0.00000000  0.42857143       0.006
  -0.14285714  0.00000000  0.42857143       0.006
   0.14285714  0.14285714  0.42857143       0.006
   0.28571429  0.14285714  0.42857143       0.006
   0.42857143  0.14285714  0.42857143       0.006
  -0.42857143  0.14285714  0.42857143       0.006
  -0.28571429  0.14285714  0.42857143       0.006
  -0.14285714  0.14285714  0.42857143       0.003
   0.14285714  0.28571429  0.42857143       0.006
   0.28571429  0.28571429  0.42857143       0.006
   0.42857143  0.28571429  0.42857143       0.006
  -0.42857143  0.28571429  0.42857143       0.006
  -0.28571429  0.28571429  0.42857143       0.003
   0.14285714  0.42857143  0.42857143       0.006
   0.28571429  0.42857143  0.42857143       0.006
   0.42857143  0.42857143  0.42857143       0.006
  -0.42857143  0.42857143  0.42857143       0.003
   0.14285714 -0.42857143  0.42857143       0.006
   0.28571429 -0.42857143  0.42857143       0.006
   0.42857143 -0.42857143  0.42857143       0.003
   0.14285714 -0.28571429  0.42857143       0.006
   0.28571429 -0.28571429  0.42857143       0.003
   0.14285714 -0.14285714  0.42857143       0.003
   0.00000000  0.00000000 -0.42857143       0.003
   0.14285714  0.00000000 -0.42857143       0.006
   0.28571429  0.00000000 -0.42857143       0.006
   0.42857143  0.00000000 -0.42857143       0.006
  -0.42857143  0.00000000 -0.42857143       0.006
  -0.28571429  0.00000000 -0.42857143       0.006
  -0.14285714  0.00000000 -0.42857143       0.006
   0.14285714  0.14285714 -0.42857143       0.006
   0.28571429  0.14285714 -0.42857143       0.006
   0.42857143  0.14285714 -0.42857143       0.006
  -0.42857143  0.14285714 -0.42857143       0.006
  -0.28571429  0.14285714 -0.42857143       0.006
  -0.14285714  0.14285714 -0.42857143       0.003
   0.14285714  0.28571429 -0.42857143       0.006
   0.28571429  0.28571429 -0.42857143       0.006
   0.42857143  0.28571429 -0.42857143       0.006
  -0.42857143  0.28571429 -0.42857143       0.006
  -0.28571429  0.28571429 -0.42857143       0.003
   0.14285714  0.42857143 -0.42857143       0.006
   0.28571429  0.42857143 -0.42857143       0.006
   0.42857143  0.42857143 -0.42857143       0.006
  -0.42857143  0.42857143 -0.42857143       0.003
   0.14285714 -0.42857143 -0.42857143       0.006
   0.28571429 -0.42857143 -0.42857143       0.006
   0.42857143 -0.42857143 -0.42857143       0.003
   0.14285714 -0.28571429 -0.42857143       0.006
   0.28571429 -0.28571429 -0.42857143       0.003
   0.14285714 -0.14285714 -0.42857143       0.003
   0.00000000  0.00000000 -0.28571429       0.003
   0.14285714  0.00000000 -0.28571429       0.006
   0.28571429  0.00000000 -0.28571429       0.006
   0.42857143  0.00000000 -0.28571429       0.006
  -0.42857143  0.00000000 -0.28571429       0.006
  -0.28571429  0.00000000 -0.28571429       0.006
  -0.14285714  0.00000000 -0.28571429       0.006
   0.14285714  0.14285714 -0.28571429       0.006
   0.28571429  0.14285714 -0.28571429       0.006
   0.42857143  0.14285714 -0.28571429       0.006
  -0.42857143  0.14285714 -0.28571429       0.006
  -0.28571429  0.14285714 -0.28571429       0.006
  -0.14285714  0.14285714 -0.28571429       0.003
   0.14285714  0.28571429 -0.28571429       0.006
   0.28571429  0.28571429 -0.28571429       0.006
   0.42857143  0.28571429 -0.28571429       0.006
  -0.42857143  0.28571429 -0.28571429       0.006
  -0.28571429  0.28571429 -0.28571429       0.003
   0.14285714  0.42857143 -0.28571429       0.006
   0.28571429  0.42857143 -0.28571429       0.006
   0.42857143  0.42857143 -0.28571429       0.006
  -0.42857143  0.42857143 -0.28571429       0.003
   0.14285714 -0.42857143 -0.28571429       0.006
   0.28571429 -0.42857143 -0.28571429       0.006
   0.42857143 -0.42857143 -0.28571429       0.003
   0.14285714 -0.28571429 -0.28571429       0.006
   0.28571429 -0.28571429 -0.28571429       0.003
   0.14285714 -0.14285714 -0.28571429       0.003
   0.00000000  0.00000000 -0.14285714       0.003
   0.14285714  0.00000000 -0.14285714       0.006
   0.28571429  0.00000000 -0.14285714       0.006
   0.42857143  0.00000000 -0.14285714       0.006
  -0.42857143  0.00000000 -0.14285714       0.006
  -0.28571429  0.00000000 -0.14285714       0.006
  -0.14285714  0.00000000 -0.14285714       0.006
   0.14285714  0.14285714 -0.14285714       0.006
   0.28571429  0.14285714 -0.14285714       0.006
   0.42857143  0.14285714 -0.14285714       0.006
  -0.42857143  0.14285714 -0.14285714       0.006
  -0.28571429  0.14285714 -0.14285714       0.006
  -0.14285714  0.14285714 -0.14285714       0.003
   0.14285714  0.28571429 -0.14285714       0.006
   0.28571429  0.28571429 -0.14285714       0.006
   0.42857143  0.28571429 -0.14285714       0.006
  -0.42857143  0.28571429 -0.14285714       0.006
  -0.28571429  0.28571429 -0.14285714       0.003
   0.14285714  0.42857143 -0.14285714       0.006
   0.28571429  0.42857143 -0.14285714       0.006
   0.42857143  0.42857143 -0.14285714       0.006
  -0.42857143  0.42857143 -0.14285714       0.003
   0.14285714 -0.42857143 -0.14285714       0.006
   0.28571429 -0.42857143 -0.14285714       0.006
   0.42857143 -0.42857143 -0.14285714       0.003
   0.14285714 -0.28571429 -0.14285714       0.006
   0.28571429 -0.28571429 -0.14285714       0.003
   0.14285714 -0.14285714 -0.14285714       0.003
 
 position of ions in fractional coordinates (direct lattice) 
   0.49909843  0.99503495  0.83993840
   0.52639264  0.86056240  0.73492129
   0.37355805  0.99544669  0.72831851
   0.58932224  0.07051352  0.61937142
   0.55958166  0.19786135  0.71537199
   0.70489525  0.07417947  0.72337308
   0.00000434  0.51813531  0.62970430
   0.99119070  0.67468553  0.72029568
   0.84237460  0.53577220  0.71884310
   0.01526169  0.49548079  0.86428760
   0.02717983  0.34739150  0.78089955
   0.16491196  0.47751978  0.78262955
   0.48186463  0.99999557  0.12970424
   0.46422777  0.15762541  0.21884313
   0.32531441  0.00880933  0.22029572
   0.50451915  0.98473829  0.36428751
   0.52248013  0.83508814  0.28262955
   0.65260844  0.97282015  0.28089955
   0.00496520  0.50090162  0.33993843
   0.00455332  0.62644197  0.22831844
   0.13943758  0.47360728  0.23492122
   0.92948648  0.41067773  0.11937133
   0.92582052  0.29510466  0.22337308
   0.80213865  0.44041837  0.21537200
   0.00087772  0.98301089  0.98958416
   0.49890561  0.49114329  0.99036649
   0.01698910  0.99912228  0.48958416
   0.50885671  0.50109442  0.49036649
   0.44566395  0.03550347  0.20844135
   0.49040219  0.97616774  0.75490981
   0.02383233  0.50959781  0.25490984
   0.96449655  0.55433605  0.70844135
   0.20526942  0.28201106  0.02018204
   0.70607151  0.19542445  0.98175193
   0.29098911  0.77942030  0.97827810
   0.81549176  0.67140067  0.97579776
   0.32859930  0.18450824  0.47579773
   0.22057972  0.70901086  0.47827808
   0.80457558  0.29392846  0.48175190
   0.71798891  0.79473059  0.52018202
   0.94794994  0.99144967  0.24090792
   0.52822417  0.53998435  0.24079969
   0.00855031  0.05205005  0.74090792
   0.46001562  0.47177583  0.74079968
   0.53673536  0.95206082  0.28890575
   0.59224492  0.08616072  0.70012080
   0.91383926  0.40775508  0.20012079
   0.04793926  0.46326464  0.78890575
 
 position of ions in cartesian coordinates  (Angst):
   4.39251564  8.75720351 10.65520689
   4.63272919  7.57372404  9.32299132
   3.28764725  8.76082727  9.23923046
   5.18656639  0.62058244  7.85716027
   4.92482252  1.74135803  9.07499473
   6.20371296  0.65284617  9.17649415
   0.00003817  4.56005731  7.98824014
   8.72337066  5.93784018  9.13745515
   7.41365501  4.71527779  9.11902816
   0.13431663  4.36067707 10.96409358
   0.23920697  3.05735800  9.90625773
   1.45137377  4.20260405  9.92820403
   4.24084262  8.80086151  1.64538917
   4.08562240  1.38724557  2.77617833
   2.86305975  0.07753001  2.79460552
   4.44022286  8.66658366  4.62124224
   4.59829562  7.34952761  3.58535383
   5.74354193  8.56169334  3.56340752
   0.04369820  4.40838534  4.31235707
   0.04007333  5.51325346  2.89637932
   1.22717629  4.16817049  2.98014017
   8.18031802  3.61433381  1.51430894
   8.14805425  2.59718672  2.83364395
   7.05954243  3.87607820  2.73214471
   0.00772476  8.65138098 12.55356813
   4.39081860  4.32250324 12.56349261
   0.14951939  8.79317570  6.21071792
   4.47839722  4.41008212  6.22064240
   3.92224403  0.31246248  2.64422453
   4.31598085  8.59115508  9.57655974
   0.20974599  4.48491961  3.23370992
   8.48843812  4.87865643  8.98707474
   1.80655574  2.48195127  0.25602331
   6.21406504  1.71991117 12.45421092
   2.56096618  6.85960046 12.41014295
   7.17706179  5.90893049 12.37867802
   2.89196970  1.62383867  6.03582744
   1.94130013  6.23993402  6.06729247
   7.08098956  2.58683515  6.11136033
   6.31894893  6.99434485  6.59887323
   8.34281308  8.72564981  3.05608573
   4.64884831  4.75234852  3.05471274
   0.07525041  0.45808734  9.39893594
   4.04855167  4.15205215  9.39756277
   4.72375444  8.37899247  3.66497185
   5.21228858  0.75829194  8.88152276
   8.04260833  3.58861187  2.53867236
   0.42190865  4.07714602 10.00782205
 
 Euler angles ALPHA=     0.0000000  BETA=     0.0000000

 transformation matrix from SAXIS to cartesian coordinates
 ---------------------------------------------------------
     1.0000000 m_x     0.0000000 m_y     0.0000000 m_z
     0.0000000 m_x     1.0000000 m_y     0.0000000 m_z
     0.0000000 m_x     0.0000000 m_y     1.0000000 m_z

 transformation matrix from cartesian coordinates to SAXIS
 ---------------------------------------------------------
     1.0000000 m_x     0.0000000 m_y     0.0000000 m_z
     0.0000000 m_x     1.0000000 m_y     0.0000000 m_z
     0.0000000 m_x     0.0000000 m_y     1.0000000 m_z




--------------------------------------------------------------------------------------------------------


 k-point  1 :   0.0000 0.0000 0.0000  plane waves:   35714
 k-point  2 :   0.1429 0.0000 0.0000  plane waves:   35710
 k-point  3 :   0.2857 0.0000 0.0000  plane waves:   35734
 k-point  4 :   0.4286 0.0000 0.0000  plane waves:   35732
 k-point  5 :  -0.4286 0.0000 0.0000  plane waves:   35732
 k-point  6 :  -0.2857 0.0000 0.0000  plane waves:   35734
 k-point  7 :  -0.1429 0.0000 0.0000  plane waves:   35710
 k-point  8 :   0.1429 0.1429 0.0000  plane waves:   35666
 k-point  9 :   0.2857 0.1429 0.0000  plane waves:   35722
 k-point 10 :   0.4286 0.1429 0.0000  plane waves:   35700
 k-point 11 :  -0.4286 0.1429 0.0000  plane waves:   35700
 k-point 12 :  -0.2857 0.1429 0.0000  plane waves:   35722
 k-point 13 :  -0.1429 0.1429 0.0000  plane waves:   35666
 k-point 14 :   0.1429 0.2857 0.0000  plane waves:   35722
 k-point 15 :   0.2857 0.2857 0.0000  plane waves:   35644
 k-point 16 :   0.4286 0.2857 0.0000  plane waves:   35652
 k-point 17 :  -0.4286 0.2857 0.0000  plane waves:   35652
 k-point 18 :  -0.2857 0.2857 0.0000  plane waves:   35644
 k-point 19 :   0.1429 0.4286 0.0000  plane waves:   35700
 k-point 20 :   0.2857 0.4286 0.0000  plane waves:   35652
 k-point 21 :   0.4286 0.4286 0.0000  plane waves:   35720
[...]

 Ion:   41  E_soc:     -0.2682219
 l=   1
     0.0000000    -0.0460824    -0.0419756
    -0.0460824     0.0000000    -0.0460665
    -0.0419756    -0.0460665     0.0000000
 l=   2
     0.0000000    -0.0000041     0.0000000    -0.0000031    -0.0000050
    -0.0000041     0.0000000     0.0000189    -0.0000073    -0.0000023
     0.0000000     0.0000189     0.0000000     0.0000204     0.0000000
    -0.0000031    -0.0000073     0.0000204     0.0000000    -0.0000039
    -0.0000050    -0.0000023     0.0000000    -0.0000039     0.0000000
 l=   3
     0.0000000     0.0000000     0.0000000     0.0000000     0.0000000     0.0000000     0.0000000
     0.0000000     0.0000000     0.0000000     0.0000000     0.0000000     0.0000000     0.0000000
     0.0000000     0.0000000     0.0000000     0.0000000     0.0000000     0.0000000     0.0000000
     0.0000000     0.0000000     0.0000000     0.0000000     0.0000000     0.0000000     0.0000000
     0.0000000     0.0000000     0.0000000     0.0000000     0.0000000     0.0000000     0.0000000
     0.0000000     0.0000000     0.0000000     0.0000000     0.0000000     0.0000000     0.0000000
     0.0000000     0.0000000     0.0000000     0.0000000     0.0000000     0.0000000     0.0000000

 Ion:   42  E_soc:     -0.2676144
 l=   1
     0.0000000    -0.0459226    -0.0418095
    -0.0459226     0.0000000    -0.0460935
    -0.0418095    -0.0460935     0.0000000
 l=   2
     0.0000000    -0.0000030     0.0000000    -0.0000038    -0.0000061
    -0.0000030     0.0000000     0.0000233    -0.0000077    -0.0000034
     0.0000000     0.0000233     0.0000000     0.0000220     0.0000000
    -0.0000038    -0.0000077     0.0000220     0.0000000    -0.0000029
    -0.0000061    -0.0000034     0.0000000    -0.0000029     0.0000000
 l=   3
     0.0000000     0.0000000     0.0000000     0.0000000     0.0000000     0.0000000     0.0000000
     0.0000000     0.0000000     0.0000000     0.0000000     0.0000000     0.0000000     0.0000000
     0.0000000     0.0000000     0.0000000     0.0000000     0.0000000     0.0000000     0.0000000
     0.0000000     0.0000000     0.0000000     0.0000000     0.0000000     0.0000000     0.0000000
     0.0000000     0.0000000     0.0000000     0.0000000     0.0000000     0.0000000     0.0000000
     0.0000000     0.0000000     0.0000000     0.0000000     0.0000000     0.0000000     0.0000000
     0.0000000     0.0000000     0.0000000     0.0000000     0.0000000     0.0000000     0.0000000

 Ion:   43  E_soc:     -0.2682219
 l=   1
     0.0000000    -0.0460665    -0.0419756
    -0.0460665     0.0000000    -0.0460824
    -0.0419756    -0.0460824     0.0000000
 l=   2
     0.0000000    -0.0000031     0.0000000    -0.0000041    -0.0000050
    -0.0000031     0.0000000     0.0000204    -0.0000073    -0.0000039
     0.0000000     0.0000204     0.0000000     0.0000189     0.0000000
    -0.0000041    -0.0000073     0.0000189     0.0000000    -0.0000023
    -0.0000050    -0.0000039     0.0000000    -0.0000023     0.0000000
 l=   3
     0.0000000     0.0000000     0.0000000     0.0000000     0.0000000     0.0000000     0.0000000
     0.0000000     0.0000000     0.0000000     0.0000000     0.0000000     0.0000000     0.0000000
     0.0000000     0.0000000     0.0000000     0.0000000     0.0000000     0.0000000     0.0000000
     0.0000000     0.0000000     0.0000000     0.0000000     0.0000000     0.0000000     0.0000000
     0.0000000     0.0000000     0.0000000     0.0000000     0.0000000     0.0000000     0.0000000
     0.0000000     0.0000000     0.0000000     0.0000000     0.0000000     0.0000000     0.0000000
     0.0000000     0.0000000     0.0000000     0.0000000     0.0000000     0.0000000     0.0000000

 Ion:   44  E_soc:     -0.2676144
 l=   1
     0.0000000    -0.0460935    -0.0418095
    -0.0460935     0.0000000    -0.0459226
    -0.0418095    -0.0459226     0.0000000
 l=   2
     0.0000000    -0.0000038     0.0000000    -0.0000030    -0.0000061
    -0.0000038     0.0000000     0.0000220    -0.0000077    -0.0000029
     0.0000000     0.0000220     0.0000000     0.0000233     0.0000000
    -0.0000030    -0.0000077     0.0000233     0.0000000    -0.0000034
    -0.0000061    -0.0000029     0.0000000    -0.0000034     0.0000000
 l=   3
     0.0000000     0.0000000     0.0000000     0.0000000     0.0000000     0.0000000     0.0000000
     0.0000000     0.0000000     0.0000000     0.0000000     0.0000000     0.0000000     0.0000000
     0.0000000     0.0000000     0.0000000     0.0000000     0.0000000     0.0000000     0.0000000
     0.0000000     0.0000000     0.0000000     0.0000000     0.0000000     0.0000000     0.0000000
     0.0000000     0.0000000     0.0000000     0.0000000     0.0000000     0.0000000     0.0000000
     0.0000000     0.0000000     0.0000000     0.0000000     0.0000000     0.0000000     0.0000000
     0.0000000     0.0000000     0.0000000     0.0000000     0.0000000     0.0000000     0.0000000

 Ion:   45  E_soc:     -0.0000505
 l=   1
     0.0000000    -0.0000082    -0.0000089
    -0.0000082     0.0000000    -0.0000081
    -0.0000089    -0.0000081     0.0000000
 l=   2
     0.0000000     0.0000000     0.0000000     0.0000000     0.0000000
     0.0000000     0.0000000     0.0000000     0.0000000     0.0000000
     0.0000000     0.0000000     0.0000000     0.0000000     0.0000000
     0.0000000     0.0000000     0.0000000     0.0000000     0.0000000
     0.0000000     0.0000000     0.0000000     0.0000000     0.0000000
 l=   3
     0.0000000     0.0000000     0.0000000     0.0000000     0.0000000     0.0000000     0.0000000
     0.0000000     0.0000000     0.0000000     0.0000000     0.0000000     0.0000000     0.0000000
     0.0000000     0.0000000     0.0000000     0.0000000     0.0000000     0.0000000     0.0000000
     0.0000000     0.0000000     0.0000000     0.0000000     0.0000000     0.0000000     0.0000000
     0.0000000     0.0000000     0.0000000     0.0000000     0.0000000     0.0000000     0.0000000
     0.0000000     0.0000000     0.0000000     0.0000000     0.0000000     0.0000000     0.0000000
     0.0000000     0.0000000     0.0000000     0.0000000     0.0000000     0.0000000     0.0000000

 Ion:   46  E_soc:     -0.0000521
 l=   1
     0.0000000    -0.0000086    -0.0000089
    -0.0000086     0.0000000    -0.0000085
    -0.0000089    -0.0000085     0.0000000
 l=   2
     0.0000000     0.0000000     0.0000000     0.0000000     0.0000000
     0.0000000     0.0000000     0.0000000     0.0000000     0.0000000
     0.0000000     0.0000000     0.0000000     0.0000000     0.0000000
     0.0000000     0.0000000     0.0000000     0.0000000     0.0000000
     0.0000000     0.0000000     0.0000000     0.0000000     0.0000000
 l=   3
     0.0000000     0.0000000     0.0000000     0.0000000     0.0000000     0.0000000     0.0000000
     0.0000000     0.0000000     0.0000000     0.0000000     0.0000000     0.0000000     0.0000000
     0.0000000     0.0000000     0.0000000     0.0000000     0.0000000     0.0000000     0.0000000
     0.0000000     0.0000000     0.0000000     0.0000000     0.0000000     0.0000000     0.0000000
     0.0000000     0.0000000     0.0000000     0.0000000     0.0000000     0.0000000     0.0000000
     0.0000000     0.0000000     0.0000000     0.0000000     0.0000000     0.0000000     0.0000000
     0.0000000     0.0000000     0.0000000     0.0000000     0.0000000     0.0000000     0.0000000

 Ion:   47  E_soc:     -0.0000521
 l=   1
     0.0000000    -0.0000085    -0.0000089
    -0.0000085     0.0000000    -0.0000086
    -0.0000089    -0.0000086     0.0000000
 l=   2
     0.0000000     0.0000000     0.0000000     0.0000000     0.0000000
     0.0000000     0.0000000     0.0000000     0.0000000     0.0000000
     0.0000000     0.0000000     0.0000000     0.0000000     0.0000000
     0.0000000     0.0000000     0.0000000     0.0000000     0.0000000
     0.0000000     0.0000000     0.0000000     0.0000000     0.0000000
 l=   3
     0.0000000     0.0000000     0.0000000     0.0000000     0.0000000     0.0000000     0.0000000
     0.0000000     0.0000000     0.0000000     0.0000000     0.0000000     0.0000000     0.0000000
     0.0000000     0.0000000     0.0000000     0.0000000     0.0000000     0.0000000     0.0000000
     0.0000000     0.0000000     0.0000000     0.0000000     0.0000000     0.0000000     0.0000000
     0.0000000     0.0000000     0.0000000     0.0000000     0.0000000     0.0000000     0.0000000
     0.0000000     0.0000000     0.0000000     0.0000000     0.0000000     0.0000000     0.0000000
     0.0000000     0.0000000     0.0000000     0.0000000     0.0000000     0.0000000     0.0000000

 Ion:   48  E_soc:     -0.0000505
 l=   1
     0.0000000    -0.0000081    -0.0000089
    -0.0000081     0.0000000    -0.0000082
    -0.0000089    -0.0000082     0.0000000
 l=   2
     0.0000000     0.0000000     0.0000000     0.0000000     0.0000000
     0.0000000     0.0000000     0.0000000     0.0000000     0.0000000
     0.0000000     0.0000000     0.0000000     0.0000000     0.0000000
     0.0000000     0.0000000     0.0000000     0.0000000     0.0000000
     0.0000000     0.0000000     0.0000000     0.0000000     0.0000000
 l=   3
     0.0000000     0.0000000     0.0000000     0.0000000     0.0000000     0.0000000     0.0000000
     0.0000000     0.0000000     0.0000000     0.0000000     0.0000000     0.0000000     0.0000000
     0.0000000     0.0000000     0.0000000     0.0000000     0.0000000     0.0000000     0.0000000
     0.0000000     0.0000000     0.0000000     0.0000000     0.0000000     0.0000000     0.0000000
     0.0000000     0.0000000     0.0000000     0.0000000     0.0000000     0.0000000     0.0000000
     0.0000000     0.0000000     0.0000000     0.0000000     0.0000000     0.0000000     0.0000000
     0.0000000     0.0000000     0.0000000     0.0000000     0.0000000     0.0000000     0.0000000
 


 total charge     
 
# of ion       s       p       d       tot
------------------------------------------
    1        0.639   0.047   0.000   0.687
    2        0.640   0.046   0.000   0.686
    3        0.640   0.046   0.000   0.686
    4        0.613   0.077   0.000   0.689
    5        0.604   0.076   0.000   0.681
    6        0.607   0.076   0.000   0.683
    7        0.640   0.047   0.000   0.687
    8        0.641   0.046   0.000   0.687
    9        0.641   0.046   0.000   0.687
   10        0.607   0.076   0.000   0.683
   11        0.606   0.076   0.000   0.681
   12        0.606   0.076   0.000   0.682
   13        0.640   0.047   0.000   0.687
   14        0.641   0.046   0.000   0.687
   15        0.641   0.046   0.000   0.687
   16        0.607   0.076   0.000   0.683
   17        0.606   0.076   0.000   0.683
   18        0.605   0.076   0.000   0.681
   19        0.639   0.047   0.000   0.687
   20        0.640   0.046   0.000   0.686
   21        0.640   0.046   0.000   0.686
   22        0.613   0.077   0.000   0.689
   23        0.607   0.076   0.000   0.683
   24        0.604   0.076   0.000   0.681
   25        1.804   0.945   0.109   2.858
   26        1.804   0.953   0.111   2.868
   27        1.804   0.946   0.109   2.859
   28        1.804   0.952   0.111   2.867
   29        1.330   2.908   0.000   4.238
   30        1.329   2.910   0.000   4.239
   31        1.329   2.909   0.000   4.239
   32        1.330   2.908   0.000   4.238
   33        1.506   2.803   0.007   4.316
   34        1.507   2.801   0.008   4.316
   35        1.508   2.796   0.008   4.313
   36        1.507   2.799   0.007   4.313
   37        1.507   2.799   0.007   4.313
   38        1.508   2.797   0.008   4.313
   39        1.507   2.801   0.008   4.316
   40        1.506   2.803   0.007   4.316
   41        1.507   2.800   0.008   4.315
   42        1.507   2.804   0.008   4.318
   43        1.507   2.801   0.008   4.316
   44        1.507   2.803   0.008   4.318
   45        1.234   2.736   0.000   3.970
   46        1.235   2.736   0.000   3.971
   47        1.235   2.736   0.000   3.971
   48        1.234   2.736   0.000   3.970
--------------------------------------------------
tot         50.521  61.451   0.532 112.504
 


 magnetization (x)
 
# of ion       s       p       d       tot
------------------------------------------
    1        0.000   0.000   0.000   0.000
    2        0.000  -0.000   0.000   0.000
    3        0.000  -0.000   0.000  -0.000
    4       -0.000   0.000   0.000   0.000
    5       -0.000  -0.000   0.000  -0.000
    6       -0.000  -0.000   0.000  -0.000
    7       -0.000  -0.000   0.000  -0.000
    8        0.000  -0.000   0.000   0.000
    9        0.000  -0.000   0.000   0.000
   10        0.000  -0.000   0.000  -0.000
   11        0.000   0.000   0.000   0.000
   12        0.000   0.000   0.000   0.000
   13       -0.000  -0.000   0.000  -0.000
   14        0.000  -0.000   0.000   0.000
   15        0.000   0.000   0.000   0.000
   16        0.000  -0.000   0.000   0.000
   17        0.000   0.000   0.000   0.000
   18        0.000   0.000   0.000   0.000
   19        0.000   0.000   0.000   0.000
   20        0.000   0.000   0.000   0.000
   21        0.000  -0.000   0.000   0.000
   22       -0.000  -0.000   0.000  -0.000
   23       -0.000  -0.000   0.000  -0.000
   24       -0.000  -0.000   0.000  -0.000
   25        0.000  -0.000   0.000  -0.000
   26        0.000  -0.000   0.000  -0.000
   27        0.000  -0.000   0.000  -0.000
   28        0.000  -0.000   0.000  -0.000
   29       -0.000   0.000   0.000  -0.000
   30        0.000  -0.000   0.000   0.000
   31        0.000   0.000   0.000   0.000
   32       -0.000   0.000   0.000  -0.000
   33       -0.000   0.000  -0.000   0.000
   34       -0.000   0.000  -0.000   0.000
   35        0.000  -0.000   0.000  -0.000
   36       -0.000   0.001  -0.000   0.001
   37       -0.000   0.001  -0.000   0.001
   38       -0.000   0.000  -0.000   0.000
   39        0.000  -0.000   0.000   0.000
   40       -0.000   0.000  -0.000   0.000
   41       -0.000  -0.000  -0.000  -0.000
   42       -0.000  -0.000   0.000  -0.000
   43       -0.000  -0.000   0.000  -0.000
   44       -0.000  -0.000  -0.000  -0.000
   45        0.000  -0.000   0.000  -0.000
   46       -0.000   0.000   0.000   0.000
   47       -0.000   0.000   0.000  -0.000
   48        0.000  -0.000   0.000  -0.000
--------------------------------------------------
tot          0.001   0.000   0.000   0.001
 


 magnetization (y)
 
# of ion       s       p       d       tot
------------------------------------------
    1       -0.000  -0.000   0.000  -0.000
    2       -0.000   0.000   0.000  -0.000
    3       -0.000  -0.000   0.000  -0.000
    4        0.000   0.000   0.000   0.000
    5        0.000   0.000   0.000   0.000
    6        0.000   0.000   0.000   0.000
    7        0.000   0.000   0.000   0.000
    8       -0.000  -0.000   0.000  -0.000
    9       -0.000   0.000   0.000  -0.000
   10       -0.000   0.000   0.000  -0.000
   11       -0.000  -0.000   0.000  -0.000
   12       -0.000  -0.000   0.000  -0.000
   13        0.000   0.000   0.000   0.000
   14       -0.000   0.000   0.000  -0.000
   15       -0.000   0.000   0.000  -0.000
   16       -0.000   0.000   0.000   0.000
   17       -0.000  -0.000   0.000  -0.000
   18       -0.000  -0.000   0.000  -0.000
   19       -0.000  -0.000   0.000  -0.000
   20       -0.000   0.000   0.000   0.000
   21       -0.000   0.000   0.000  -0.000
   22        0.000  -0.000   0.000  -0.000
   23        0.000   0.000   0.000   0.000
   24        0.000   0.000   0.000   0.000
   25       -0.000   0.000  -0.000   0.000
   26       -0.000   0.000  -0.000   0.000
   27       -0.000   0.000  -0.000   0.000
   28       -0.000   0.000  -0.000   0.000
   29        0.000  -0.000   0.000   0.000
   30       -0.000  -0.000   0.000  -0.000
   31       -0.000   0.000   0.000  -0.000
   32        0.000  -0.000   0.000   0.000
   33        0.000  -0.000   0.000  -0.000
   34       -0.000   0.000  -0.000  -0.000
   35        0.000  -0.000   0.000  -0.000
   36        0.000  -0.001   0.000  -0.001
   37        0.000  -0.001   0.000  -0.001
   38       -0.000   0.000  -0.000   0.000
   39        0.000  -0.000   0.000  -0.000
   40        0.000  -0.000   0.000  -0.000
   41        0.000   0.000  -0.000   0.000
   42        0.000   0.000   0.000   0.000
   43        0.000   0.000   0.000   0.000
   44        0.000   0.000  -0.000   0.000
   45       -0.000   0.000   0.000   0.000
   46        0.000  -0.000   0.000   0.000
   47        0.000  -0.000   0.000  -0.000
   48       -0.000   0.000   0.000   0.000
--------------------------------------------------
tot         -0.001  -0.000  -0.000  -0.001
 


 magnetization (z)
 
# of ion       s       p       d       tot
------------------------------------------
    1        0.000   0.000   0.000   0.000
    2        0.000  -0.000   0.000   0.000
    3       -0.000  -0.000   0.000  -0.000
    4        0.000  -0.000   0.000  -0.000
    5       -0.000   0.000   0.000  -0.000
    6       -0.000  -0.000   0.000  -0.000
    7        0.000   0.000   0.000   0.000
    8       -0.000  -0.000   0.000  -0.000
    9        0.000  -0.000   0.000  -0.000
   10        0.000   0.000   0.000   0.000
   11        0.000  -0.000   0.000  -0.000
   12        0.000  -0.000   0.000   0.000
   13        0.000   0.000   0.000   0.000
   14        0.000  -0.000   0.000  -0.000
   15       -0.000  -0.000   0.000  -0.000
   16        0.000   0.000   0.000   0.000
   17        0.000  -0.000   0.000   0.000
   18        0.000  -0.000   0.000  -0.000
   19       -0.000   0.000   0.000   0.000
   20       -0.000  -0.000   0.000  -0.000
   21        0.000  -0.000   0.000   0.000
   22        0.000  -0.000   0.000  -0.000
   23       -0.000  -0.000   0.000  -0.000
   24       -0.000   0.000   0.000  -0.000
   25       -0.000  -0.000  -0.000  -0.000
   26        0.000   0.001  -0.000   0.000
   27       -0.000  -0.000  -0.000  -0.000
   28        0.000   0.001  -0.000   0.000
   29        0.000  -0.000   0.000   0.000
   30       -0.000   0.000   0.000   0.000
   31       -0.000   0.000   0.000   0.000
   32        0.000  -0.000   0.000   0.000
   33       -0.000   0.000   0.000   0.000
   34       -0.000   0.000  -0.000   0.000
   35       -0.000   0.001  -0.000   0.000
   36        0.000  -0.001  -0.000  -0.001
   37        0.000  -0.001  -0.000  -0.001
   38       -0.000   0.001  -0.000   0.000
   39       -0.000   0.000  -0.000   0.000
   40       -0.000   0.000   0.000   0.000
   41       -0.000   0.000  -0.000   0.000
   42       -0.000   0.000   0.000   0.000
   43       -0.000   0.000  -0.000   0.000
   44       -0.000   0.000   0.000   0.000
   45        0.000   0.000   0.000   0.000
   46       -0.000   0.000   0.000   0.000
   47       -0.000   0.000   0.000   0.000
   48        0.000   0.000   0.000   0.000
--------------------------------------------------
tot         -0.000   0.002  -0.000   0.001
 

 total amount of memory used by VASP MPI-rank0   412489. kBytes
=======================================================================

   base      :      30000. kBytes
   nonlr-proj:       8849. kBytes
   fftplans  :       5147. kBytes
   grid      :      21288. kBytes
   one-center:        389. kBytes
   wavefun   :     346816. kBytes
 
  
  
 General timing and accounting informations for this job:
 ========================================================
  
                  Total CPU time used (sec):     2381.518
                            User time (sec):     1975.287
                          System time (sec):      406.232
                         Elapsed time (sec):     2521.538
  
                   Maximum memory used (kb):     1093276.
                   Average memory used (kb):           0.
  
                          Minor page faults:        48181
                          Major page faults:           27
                 Voluntary context switches:        55529
