 vasp.5.4.4.18Apr17-6-g9f103f2a35 (build Jan 19 2018 17:03:37) complex          
  
 executed on             LinuxIFC date 2018.03.21  16:52:21
 running on  576 total cores
 distrk:  each k-point on   72 cores,    8 groups
 distr:  one band on NCORES_PER_BAND=   4 cores,   18 groups


--------------------------------------------------------------------------------------------------------


 INCAR:
 POTCAR:   PAW_PBE H 15Jun2001                    
 POTCAR:   PAW_PBE Pb 08Apr2002                   
 POTCAR:   PAW_PBE C_s 06Sep2000                  
 POTCAR:   PAW_PBE I 08Apr2002                    
 POTCAR:   PAW_PBE N 08Apr2002                    

 ----------------------------------------------------------------------------- 
|                                                                             |
|           W    W    AA    RRRRR   N    N  II  N    N   GGGG   !!!           |
|           W    W   A  A   R    R  NN   N  II  NN   N  G    G  !!!           |
|           W    W  A    A  R    R  N N  N  II  N N  N  G       !!!           |
|           W WW W  AAAAAA  RRRRR   N  N N  II  N  N N  G  GGG   !            |
|           WW  WW  A    A  R   R   N   NN  II  N   NN  G    G                |
|           W    W  A    A  R    R  N    N  II  N    N   GGGG   !!!           |
|                                                                             |
|      For optimal performance we recommend to set                            |
|        NCORE= 4 - approx SQRT( number of cores)                             |
|      NCORE specifies how many cores store one orbital (NPAR=cpu/NCORE).     |
|      This setting can  greatly improve the performance of VASP for DFT.     |
|      The default,   NCORE=1            might be grossly inefficient         |
|      on modern multi-core architectures or massively parallel machines.     |
|      Do your own testing !!!!                                               |
|      Unfortunately you need to use the default for GW and RPA calculations. |
|      (for HF NCORE is supported but not extensively tested yet)             |
|                                                                             |
 ----------------------------------------------------------------------------- 


 ----------------------------------------------------------------------------- 
|                                                                             |
|           W    W    AA    RRRRR   N    N  II  N    N   GGGG   !!!           |
|           W    W   A  A   R    R  NN   N  II  NN   N  G    G  !!!           |
|           W    W  A    A  R    R  N N  N  II  N N  N  G       !!!           |
|           W WW W  AAAAAA  RRRRR   N  N N  II  N  N N  G  GGG   !            |
|           WW  WW  A    A  R   R   N   NN  II  N   NN  G    G                |
|           W    W  A    A  R    R  N    N  II  N    N   GGGG   !!!           |
|                                                                             |
|      You have enabled k-point parallelism (KPAR>1).                         |
|      This developmental code was originally  written by Paul Kent at ORNL,  |
|      and carefully double checked in Vienna.                                |
|      GW as well as linear response parallelism added by Martijn Marsman     |
|      and Georg Kresse.                                                      |
|      Carefully verify results versus KPAR=1.                                |
|      Report problems to Paul Kent and Vienna.                               |
|                                                                             |
 ----------------------------------------------------------------------------- 

 POTCAR:   PAW_PBE H 15Jun2001                    
   VRHFIN =H: ultrasoft test                                                    
   LEXCH  = PE                                                                  
   EATOM  =    12.4884 eV,     .9179 Ry                                         
                                                                                
   TITEL  = PAW_PBE H 15Jun2001                                                 
   LULTRA =        F    use ultrasoft PP ?                                      
   IUNSCR =        0    unscreen: 0-lin 1-nonlin 2-no                           
   RPACOR =     .000    partial core radius                                     
   POMASS =    1.000; ZVAL   =    1.000    mass and valenz                      
   RCORE  =    1.100    outmost cutoff radius                                   
   RWIGS  =     .700; RWIGS  =     .370    wigner-seitz radius (au A)           
   ENMAX  =  250.000; ENMIN  =  200.000 eV                                      
   RCLOC  =     .701    cutoff for local pot                                    
   LCOR   =        T    correct aug charges                                     
   LPAW   =        T    paw PP                                                  
   EAUG   =  400.000                                                            
   RMAX   =    2.174    core radius for proj-oper                               
   RAUG   =    1.200    factor for augmentation sphere                          
   RDEP   =    1.112    radius for radial grids                                 
   QCUT   =   -5.749; QGAM   =   11.498    optimization parameters              
                                                                                
   Description                                                                  
     l     E      TYP  RCUT    TYP  RCUT                                        
     0   .000     23  1.100                                                     
     0   .500     23  1.100                                                     
     1  -.300     23  1.100                                                     
  local pseudopotential read in
  atomic valenz-charges read in
  non local Contribution for L=           0  read in
    real space projection operators read in
  non local Contribution for L=           0  read in
    real space projection operators read in
  non local Contribution for L=           1  read in
    real space projection operators read in
    PAW grid and wavefunctions read in
 
   number of l-projection  operators is LMAX  =           3
   number of lm-projection operators is LMMAX =           5
 
 POTCAR:   PAW_PBE Pb 08Apr2002                   
   VRHFIN =Pb:                                                                  
   LEXCH  = PE                                                                  
   EATOM  =    96.9868 eV,    7.1283 Ry                                         
                                                                                
   TITEL  = PAW_PBE Pb 08Apr2002                                                
   LULTRA =        F    use ultrasoft PP ?                                      
   IUNSCR =        1    unscreen: 0-lin 1-nonlin 2-no                           
   RPACOR =    2.200    partial core radius                                     
   POMASS =  207.200; ZVAL   =    4.000    mass and valenz                      
   RCORE  =    3.100    outmost cutoff radius                                   
   RWIGS  =    3.260; RWIGS  =    1.725    wigner-seitz radius (au A)           
   ENMAX  =   97.973; ENMIN  =   73.480 eV                                      
   ICORE  =        3    local potential                                         
   LCOR   =        T    correct aug charges                                     
   LPAW   =        T    paw PP                                                  
   EAUG   =  234.873                                                            
   DEXC   =    -.129                                                            
   RMAX   =    4.658    core radius for proj-oper                               
   RAUG   =    1.300    factor for augmentation sphere                          
   RDEP   =    3.202    radius for radial grids                                 
   QCUT   =   -2.683; QGAM   =    5.367    optimization parameters              
                                                                                
   Description                                                                  
     l     E      TYP  RCUT    TYP  RCUT                                        
     0   .000     23  3.100                                                     
     0   .000     23  3.100                                                     
     1   .000     23  3.100                                                     
     1  -.400     23  3.100                                                     
     2  -.100     23  3.100                                                     
     3  -.100     23  3.100                                                     
  local pseudopotential read in
  partial core-charges read in
  atomic valenz-charges read in
  non local Contribution for L=           0  read in
    real space projection operators read in
  non local Contribution for L=           0  read in
    real space projection operators read in
  non local Contribution for L=           1  read in
    real space projection operators read in
  non local Contribution for L=           1  read in
    real space projection operators read in
  non local Contribution for L=           2  read in
    real space projection operators read in
    PAW grid and wavefunctions read in
 
   number of l-projection  operators is LMAX  =           5
   number of lm-projection operators is LMMAX =          13
 
 POTCAR:   PAW_PBE C_s 06Sep2000                  
   VRHFIN =C: s2p2                                                              
   LEXCH  = PE                                                                  
   EATOM  =   147.1520 eV,   10.8154 Ry                                         
                                                                                
   TITEL  = PAW_PBE C_s 06Sep2000                                               
   LULTRA =        F    use ultrasoft PP ?                                      
   IUNSCR =        0    unscreen: 0-lin 1-nonlin 2-no                           
   RPACOR =     .000    partial core radius                                     
   POMASS =   12.011; ZVAL   =    4.000    mass and valenz                      
   RCORE  =    1.850    outmost cutoff radius                                   
   RWIGS  =    1.890; RWIGS  =    1.000    wigner-seitz radius (au A)           
   ENMAX  =  273.901; ENMIN  =  205.426 eV                                      
   RCLOC  =     .804    cutoff for local pot                                    
   LCOR   =        T    correct aug charges                                     
   LPAW   =        T    paw PP                                                  
   EAUG   =  439.243                                                            
   DEXC   =     .000                                                            
   RMAX   =    2.786    core radius for proj-oper                               
   RAUG   =    1.300    factor for augmentation sphere                          
   RDEP   =    1.940    radius for radial grids                                 
   QCUT   =   -4.487; QGAM   =    8.974    optimization parameters              
                                                                                
   Description                                                                  
     l     E      TYP  RCUT    TYP  RCUT                                        
     0   .000     23  1.500                                                     
     0   .000     23  1.500                                                     
     1   .000     23  1.850                                                     
     1   .000     23  1.850                                                     
     2   .000      7   .000                                                     
  local pseudopotential read in
  atomic valenz-charges read in
  non local Contribution for L=           0  read in
    real space projection operators read in
  non local Contribution for L=           0  read in
    real space projection operators read in
  non local Contribution for L=           1  read in
    real space projection operators read in
  non local Contribution for L=           1  read in
    real space projection operators read in
    PAW grid and wavefunctions read in
 
   number of l-projection  operators is LMAX  =           4
   number of lm-projection operators is LMMAX =           8
 
 POTCAR:   PAW_PBE I 08Apr2002                    
   VRHFIN =I : s2p5                                                             
   LEXCH  = PE                                                                  
   EATOM  =   315.8678 eV,   23.2156 Ry                                         
                                                                                
   TITEL  = PAW_PBE I 08Apr2002                                                 
   LULTRA =        F    use ultrasoft PP ?                                      
   IUNSCR =        1    unscreen: 0-lin 1-nonlin 2-no                           
   RPACOR =    2.200    partial core radius                                     
   POMASS =  126.904; ZVAL   =    7.000    mass and valenz                      
   RCORE  =    2.300    outmost cutoff radius                                   
   RWIGS  =    2.810; RWIGS  =    1.487    wigner-seitz radius (au A)           
   ENMAX  =  175.647; ENMIN  =  131.735 eV                                      
   ICORE  =        3    local potential                                         
   LCOR   =        T    correct aug charges                                     
   LPAW   =        T    paw PP                                                  
   EAUG   =  370.139                                                            
   DEXC   =    -.080                                                            
   RMAX   =    3.479    core radius for proj-oper                               
   RAUG   =    1.300    factor for augmentation sphere                          
   RDEP   =    2.392    radius for radial grids                                 
   QCUT   =   -3.593; QGAM   =    7.186    optimization parameters              
                                                                                
   Description                                                                  
     l     E      TYP  RCUT    TYP  RCUT                                        
     0   .000     23  2.300                                                     
     0   .000     23  2.300                                                     
     1   .000     23  2.300                                                     
     1   .000     23  2.300                                                     
     2   .000     23  2.300                                                     
     3  -.100     23  2.300                                                     
  local pseudopotential read in
  partial core-charges read in
  atomic valenz-charges read in
  non local Contribution for L=           0  read in
    real space projection operators read in
  non local Contribution for L=           0  read in
    real space projection operators read in
  non local Contribution for L=           1  read in
    real space projection operators read in
  non local Contribution for L=           1  read in
    real space projection operators read in
  non local Contribution for L=           2  read in
    real space projection operators read in
    PAW grid and wavefunctions read in
 
   number of l-projection  operators is LMAX  =           5
   number of lm-projection operators is LMMAX =          13
 
 POTCAR:   PAW_PBE N 08Apr2002                    
   VRHFIN =N: s2p3                                                              
   LEXCH  = PE                                                                  
   EATOM  =   264.5486 eV,   19.4438 Ry                                         
                                                                                
   TITEL  = PAW_PBE N 08Apr2002                                                 
   LULTRA =        F    use ultrasoft PP ?                                      
   IUNSCR =        0    unscreen: 0-lin 1-nonlin 2-no                           
   RPACOR =     .000    partial core radius                                     
   POMASS =   14.001; ZVAL   =    5.000    mass and valenz                      
   RCORE  =    1.500    outmost cutoff radius                                   
   RWIGS  =    1.400; RWIGS  =     .741    wigner-seitz radius (au A)           
   ENMAX  =  400.000; ENMIN  =  300.000 eV                                      
   ICORE  =        2    local potential                                         
   LCOR   =        T    correct aug charges                                     
   LPAW   =        T    paw PP                                                  
   EAUG   =  627.112                                                            
   DEXC   =     .000                                                            
   RMAX   =    2.247    core radius for proj-oper                               
   RAUG   =    1.300    factor for augmentation sphere                          
   RDEP   =    1.514    radius for radial grids                                 
   QCUT   =   -5.562; QGAM   =   11.124    optimization parameters              
                                                                                
   Description                                                                  
     l     E      TYP  RCUT    TYP  RCUT                                        
     0   .000     23  1.200                                                     
     0   .000     23  1.200                                                     
     1   .000     23  1.500                                                     
     1   .700     23  1.500                                                     
     2   .000      7  1.500                                                     
  local pseudopotential read in
  atomic valenz-charges read in
  non local Contribution for L=           0  read in
    real space projection operators read in
  non local Contribution for L=           0  read in
    real space projection operators read in
  non local Contribution for L=           1  read in
    real space projection operators read in
  non local Contribution for L=           1  read in
    real space projection operators read in
    PAW grid and wavefunctions read in
 
   number of l-projection  operators is LMAX  =           4
   number of lm-projection operators is LMMAX =           8
 
 Optimization of the real space projectors (new method)

 maximal supplied QI-value         = 34.20
 optimisation between [QCUT,QGAM] = [  9.92, 20.18] = [ 27.55,114.04] Ry 
 Optimized for a Real-space Cutoff    1.34 Angstroem

   l    n(q)    QCUT    max X(q) W(low)/X(q) W(high)/X(q)  e(spline) 
   0      8     9.919     4.436    0.31E-04    0.59E-04    0.66E-07
   0      8     9.919    16.131    0.16E-03    0.20E-03    0.35E-06
   1      8     9.919     4.654    0.19E-03    0.46E-03    0.40E-06
 Optimization of the real space projectors (new method)

 maximal supplied QI-value         = 12.09
 optimisation between [QCUT,QGAM] = [ 10.16, 20.44] = [ 28.90,116.99] Ry 
 Optimized for a Real-space Cutoff    1.70 Angstroem

   l    n(q)    QCUT    max X(q) W(low)/X(q) W(high)/X(q)  e(spline) 
   0     10    10.159     8.417    0.10E-04    0.20E-05    0.77E-08
   0     10    10.159    43.994    0.62E-04    0.34E-04    0.33E-06
   1     10    10.159     7.080    0.81E-05    0.62E-05    0.11E-07
   1     10    10.159    90.749    0.68E-04    0.20E-03    0.15E-06
   2      9    10.159     8.916    0.64E-04    0.23E-04    0.13E-06
 Optimization of the real space projectors (new method)

 maximal supplied QI-value         = 20.41
 optimisation between [QCUT,QGAM] = [ 10.20, 20.41] = [ 29.16,116.64] Ry 
 Optimized for a Real-space Cutoff    1.30 Angstroem

   l    n(q)    QCUT    max X(q) W(low)/X(q) W(high)/X(q)  e(spline) 
   0      8    10.205     4.931    0.11E-04    0.54E-05    0.18E-07
   0      8    10.205    45.150    0.20E-03    0.12E-03    0.15E-06
   1      7    10.205     4.092    0.18E-04    0.16E-03    0.83E-07
   1      7    10.205    57.782    0.15E-03    0.55E-03    0.19E-06
 Optimization of the real space projectors (new method)

 maximal supplied QI-value         = 16.25
 optimisation between [QCUT,QGAM] = [ 10.24, 20.48] = [ 29.35,117.42] Ry 
 Optimized for a Real-space Cutoff    1.42 Angstroem

   l    n(q)    QCUT    max X(q) W(low)/X(q) W(high)/X(q)  e(spline) 
   0      9    10.239     6.350    0.16E-04    0.55E-05    0.44E-08
   0      9    10.239    79.378    0.80E-04    0.11E-03    0.78E-07
   1      8    10.239     4.566    0.21E-04    0.12E-04    0.22E-07
   1      8    10.239    71.978    0.25E-03    0.30E-03    0.73E-07
   2      8    10.239     4.877    0.44E-04    0.81E-04    0.46E-07
 Optimization of the real space projectors (new method)

 maximal supplied QI-value         = 25.13
 optimisation between [QCUT,QGAM] = [ 10.05, 20.36] = [ 28.30,116.06] Ry 
 Optimized for a Real-space Cutoff    1.70 Angstroem

   l    n(q)    QCUT    max X(q) W(low)/X(q) W(high)/X(q)  e(spline) 
   0     10    10.053     4.511    0.26E-04    0.81E-05    0.18E-06
   0     10    10.053    37.799    0.60E-04    0.98E-04    0.61E-06
   1     10    10.053     2.478    0.79E-05    0.19E-04    0.19E-06
   1     10    10.053     4.765    0.18E-03    0.77E-03    0.49E-05
 PAW_PBE H 15Jun2001                    :
 energy of atom  1       EATOM=  -12.4884
 kinetic energy error for atom=    0.0098 (will be added to EATOM!!)
 PAW_PBE Pb 08Apr2002                   :
 energy of atom  2       EATOM=  -96.9868
 kinetic energy error for atom=    0.0001 (will be added to EATOM!!)
 PAW_PBE C_s 06Sep2000                  :
 energy of atom  3       EATOM= -147.1520
 kinetic energy error for atom=    0.0046 (will be added to EATOM!!)
 PAW_PBE I 08Apr2002                    :
 energy of atom  4       EATOM= -315.8678
 kinetic energy error for atom=    0.0013 (will be added to EATOM!!)
 PAW_PBE N 08Apr2002                    :
 energy of atom  5       EATOM= -264.5486
 kinetic energy error for atom=    0.0736 (will be added to EATOM!!)
 
 
 POSCAR: CH3PbI3 tetragonal                      
  positions in direct lattice
  velocities in cartesian coordinates
 exchange correlation table for  LEXCH =        8
   RHO(1)=    0.500       N(1)  =     2000
   RHO(2)=  100.500       N(2)  =     4000

 VTST: version 3.1, (03/28/14)

 CHAIN: initializing optimizer
 
 OPT: Using VASP Dynamics algorithm
 CHAIN: Read ICHAIN            0
 
 POSCAR: CH3PbI3 tetragonal                      
  positions in direct lattice
  velocities in cartesian coordinates
 


--------------------------------------------------------------------------------------------------------


 ion  position               nearest neighbor table
   1  0.499  0.995  0.840-  30 1.09
   2  0.526  0.861  0.735-  30 1.10
   3  0.374  0.995  0.728-  30 1.10
   4  0.589  0.071  0.619-  46 1.03
   5  0.560  0.198  0.715-  46 1.04
   6  0.705  0.074  0.723-  46 1.04
   7  0.000  0.518  0.630-  32 1.09
   8  0.991  0.675  0.720-  32 1.10
   9  0.842  0.536  0.719-  32 1.10
  10  0.015  0.495  0.864-  48 1.04
  11  0.027  0.347  0.781-  48 1.04
  12  0.165  0.478  0.783-  48 1.04
  13  0.482  1.000  0.130-  29 1.09
  14  0.464  0.158  0.219-  29 1.10
  15  0.325  0.009  0.220-  29 1.10
  16  0.505  0.985  0.364-  45 1.04
  17  0.522  0.835  0.283-  45 1.04
  18  0.653  0.973  0.281-  45 1.04
  19  0.005  0.501  0.340-  31 1.09
  20  0.005  0.626  0.228-  31 1.10
  21  0.139  0.474  0.235-  31 1.10
  22  0.929  0.411  0.119-  47 1.03
  23  0.926  0.295  0.223-  47 1.04
  24  0.802  0.440  0.215-  47 1.04
  25  0.001  0.983  0.990-  35 3.12  36 3.20  34 3.20  33 3.21  43 3.21  41 3.22
  26  0.499  0.491  0.990-  35 3.13  34 3.18  44 3.19  33 3.20  36 3.21  42 3.22
  27  0.017  0.999  0.490-  38 3.12  37 3.20  39 3.20  40 3.21  41 3.21  43 3.22
  28  0.509  0.501  0.490-  38 3.13  39 3.18  42 3.19  40 3.20  37 3.21  44 3.22
  29  0.446  0.036  0.208-  13 1.09  14 1.10  15 1.10  45 1.49
  30  0.490  0.976  0.755-   1 1.09   2 1.10   3 1.10  46 1.49
  31  0.024  0.510  0.255-  19 1.09  21 1.10  20 1.10  47 1.49
  32  0.964  0.554  0.708-   7 1.09   9 1.10   8 1.10  48 1.49
  33  0.205  0.282  0.020-  26 3.20  25 3.21
  34  0.706  0.195  0.982-  26 3.18  25 3.20
  35  0.291  0.779  0.978-  25 3.12  26 3.13
  36  0.815  0.671  0.976-  25 3.20  26 3.21
  37  0.329  0.185  0.476-  27 3.20  28 3.21
  38  0.221  0.709  0.478-  27 3.12  28 3.13
  39  0.805  0.294  0.482-  28 3.18  27 3.20
  40  0.718  0.795  0.520-  28 3.20  27 3.21
  41  0.948  0.991  0.241-  27 3.21  25 3.22
  42  0.528  0.540  0.241-  28 3.19  26 3.22
  43  0.009  0.052  0.741-  25 3.21  27 3.22
  44  0.460  0.472  0.741-  26 3.19  28 3.22
  45  0.537  0.952  0.289-  16 1.04  17 1.04  18 1.04  29 1.49
  46  0.592  0.086  0.700-   4 1.03   6 1.04   5 1.04  30 1.49
  47  0.914  0.408  0.200-  22 1.03  23 1.04  24 1.04  31 1.49
  48  0.048  0.463  0.789-  10 1.04  12 1.04  11 1.04  32 1.49
 
  LATTYP: Found a simple tetragonal cell.
 ALAT       =     8.8009004593
 C/A-ratio  =     1.4414093734
  
  Lattice vectors:
  
 A1 = (   8.8009004593,   0.0000000000,   0.0000000000)
 A2 = (   0.0000000000,   8.8009004593,   0.0000000000)
 A3 = (   0.0000000000,   0.0000000000,  12.6857004166)


Analysis of symmetry for initial positions (statically):
=====================================================================
 Subroutine PRICEL returns:
 Original cell was already a primitive cell.
 

 Routine SETGRP: Setting up the symmetry group for a 
 simple tetragonal supercell.


 Subroutine GETGRP returns: Found  2 space group operations
 (whereof  1 operations were pure point group operations)
 out of a pool of 16 trial point group operations.


The static configuration has the point symmetry C_1 .
 The point group associated with its full space group is C_1h.


Analysis of symmetry for dynamics (positions and initial velocities):
=====================================================================
 Subroutine PRICEL returns:
 Original cell was already a primitive cell.
 

 Routine SETGRP: Setting up the symmetry group for a 
 simple tetragonal supercell.


 Subroutine GETGRP returns: Found  2 space group operations
 (whereof  1 operations were pure point group operations)
 out of a pool of 16 trial point group operations.


The dynamic configuration has the point symmetry C_1 .
 The point group associated with its full space group is C_1h.


 Subroutine INISYM returns: Found  2 space group operations
 (whereof  1 operations are pure point group operations),
 and found     1 'primitive' translations

 
 
 KPOINTS: Automatic Mesh                          

Automatic generation of k-mesh.
Space group operators:
 irot       det(A)        alpha          n_x          n_y          n_z        tau_x        tau_y        tau_z
    1     1.000000     0.000000     1.000000     0.000000     0.000000     0.000000     0.000000     0.000000
    2    -1.000000   180.000000     0.707107     0.707107     0.000000     0.000000     0.000000     0.500000
 
 Subroutine IBZKPT returns following result:
 ===========================================
 
 Found    100 irreducible k-points:
 
 Following reciprocal coordinates:
            Coordinates               Weight
  0.000000  0.000000  0.000000      1.000000
  0.142857  0.000000  0.000000      4.000000
  0.285714  0.000000  0.000000      4.000000
  0.428571  0.000000  0.000000      4.000000
  0.142857  0.142857  0.000000      2.000000
  0.285714  0.142857  0.000000      4.000000
  0.428571  0.142857  0.000000      4.000000
 -0.428571  0.142857  0.000000      4.000000
 -0.285714  0.142857  0.000000      4.000000
 -0.142857  0.142857  0.000000      2.000000
  0.285714  0.285714  0.000000      2.000000
  0.428571  0.285714  0.000000      4.000000
 -0.428571  0.285714  0.000000      4.000000
 -0.285714  0.285714  0.000000      2.000000
  0.428571  0.428571  0.000000      2.000000
 -0.428571  0.428571  0.000000      2.000000
  0.000000  0.000000  0.142857      2.000000
  0.142857  0.000000  0.142857      4.000000
  0.285714  0.000000  0.142857      4.000000
  0.428571  0.000000  0.142857      4.000000
 -0.428571  0.000000  0.142857      4.000000
 -0.285714  0.000000  0.142857      4.000000
 -0.142857  0.000000  0.142857      4.000000
  0.142857  0.142857  0.142857      4.000000
  0.285714  0.142857  0.142857      4.000000
  0.428571  0.142857  0.142857      4.000000
 -0.428571  0.142857  0.142857      4.000000
 -0.285714  0.142857  0.142857      4.000000
 -0.142857  0.142857  0.142857      2.000000
  0.142857  0.285714  0.142857      4.000000
  0.285714  0.285714  0.142857      4.000000
  0.428571  0.285714  0.142857      4.000000
 -0.428571  0.285714  0.142857      4.000000
 -0.285714  0.285714  0.142857      2.000000
  0.142857  0.428571  0.142857      4.000000
  0.285714  0.428571  0.142857      4.000000
  0.428571  0.428571  0.142857      4.000000
 -0.428571  0.428571  0.142857      2.000000
  0.142857 -0.428571  0.142857      4.000000
  0.285714 -0.428571  0.142857      4.000000
  0.428571 -0.428571  0.142857      2.000000
  0.142857 -0.285714  0.142857      4.000000
  0.285714 -0.285714  0.142857      2.000000
  0.142857 -0.142857  0.142857      2.000000
  0.000000  0.000000  0.285714      2.000000
  0.142857  0.000000  0.285714      4.000000
  0.285714  0.000000  0.285714      4.000000
  0.428571  0.000000  0.285714      4.000000
 -0.428571  0.000000  0.285714      4.000000
 -0.285714  0.000000  0.285714      4.000000
 -0.142857  0.000000  0.285714      4.000000
  0.142857  0.142857  0.285714      4.000000
  0.285714  0.142857  0.285714      4.000000
  0.428571  0.142857  0.285714      4.000000
 -0.428571  0.142857  0.285714      4.000000
 -0.285714  0.142857  0.285714      4.000000
 -0.142857  0.142857  0.285714      2.000000
  0.142857  0.285714  0.285714      4.000000
  0.285714  0.285714  0.285714      4.000000
  0.428571  0.285714  0.285714      4.000000
 -0.428571  0.285714  0.285714      4.000000
 -0.285714  0.285714  0.285714      2.000000
  0.142857  0.428571  0.285714      4.000000
  0.285714  0.428571  0.285714      4.000000
  0.428571  0.428571  0.285714      4.000000
 -0.428571  0.428571  0.285714      2.000000
  0.142857 -0.428571  0.285714      4.000000
  0.285714 -0.428571  0.285714      4.000000
  0.428571 -0.428571  0.285714      2.000000
  0.142857 -0.285714  0.285714      4.000000
  0.285714 -0.285714  0.285714      2.000000
  0.142857 -0.142857  0.285714      2.000000
  0.000000  0.000000  0.428571      2.000000
  0.142857  0.000000  0.428571      4.000000
  0.285714  0.000000  0.428571      4.000000
  0.428571  0.000000  0.428571      4.000000
 -0.428571  0.000000  0.428571      4.000000
 -0.285714  0.000000  0.428571      4.000000
 -0.142857  0.000000  0.428571      4.000000
  0.142857  0.142857  0.428571      4.000000
  0.285714  0.142857  0.428571      4.000000
  0.428571  0.142857  0.428571      4.000000
 -0.428571  0.142857  0.428571      4.000000
 -0.285714  0.142857  0.428571      4.000000
 -0.142857  0.142857  0.428571      2.000000
  0.142857  0.285714  0.428571      4.000000
  0.285714  0.285714  0.428571      4.000000
  0.428571  0.285714  0.428571      4.000000
 -0.428571  0.285714  0.428571      4.000000
 -0.285714  0.285714  0.428571      2.000000
  0.142857  0.428571  0.428571      4.000000
  0.285714  0.428571  0.428571      4.000000
  0.428571  0.428571  0.428571      4.000000
 -0.428571  0.428571  0.428571      2.000000
  0.142857 -0.428571  0.428571      4.000000
  0.285714 -0.428571  0.428571      4.000000
  0.428571 -0.428571  0.428571      2.000000
  0.142857 -0.285714  0.428571      4.000000
  0.285714 -0.285714  0.428571      2.000000
  0.142857 -0.142857  0.428571      2.000000
 
 Following cartesian coordinates:
            Coordinates               Weight
  0.000000  0.000000  0.000000      1.000000
  0.016232  0.000000  0.000000      4.000000
  0.032464  0.000000  0.000000      4.000000
  0.048696  0.000000  0.000000      4.000000
  0.016232  0.016232  0.000000      2.000000
  0.032464  0.016232  0.000000      4.000000
  0.048696  0.016232  0.000000      4.000000
 -0.048696  0.016232  0.000000      4.000000
 -0.032464  0.016232  0.000000      4.000000
 -0.016232  0.016232  0.000000      2.000000
  0.032464  0.032464  0.000000      2.000000
  0.048696  0.032464  0.000000      4.000000
 -0.048696  0.032464  0.000000      4.000000
 -0.032464  0.032464  0.000000      2.000000
  0.048696  0.048696  0.000000      2.000000
 -0.048696  0.048696  0.000000      2.000000
  0.000000  0.000000  0.011261      2.000000
  0.016232  0.000000  0.011261      4.000000
  0.032464  0.000000  0.011261      4.000000
  0.048696  0.000000  0.011261      4.000000
 -0.048696  0.000000  0.011261      4.000000
 -0.032464  0.000000  0.011261      4.000000
 -0.016232  0.000000  0.011261      4.000000
  0.016232  0.016232  0.011261      4.000000
  0.032464  0.016232  0.011261      4.000000
  0.048696  0.016232  0.011261      4.000000
 -0.048696  0.016232  0.011261      4.000000
 -0.032464  0.016232  0.011261      4.000000
 -0.016232  0.016232  0.011261      2.000000
  0.016232  0.032464  0.011261      4.000000
  0.032464  0.032464  0.011261      4.000000
  0.048696  0.032464  0.011261      4.000000
 -0.048696  0.032464  0.011261      4.000000
 -0.032464  0.032464  0.011261      2.000000
  0.016232  0.048696  0.011261      4.000000
  0.032464  0.048696  0.011261      4.000000
  0.048696  0.048696  0.011261      4.000000
 -0.048696  0.048696  0.011261      2.000000
  0.016232 -0.048696  0.011261      4.000000
  0.032464 -0.048696  0.011261      4.000000
  0.048696 -0.048696  0.011261      2.000000
  0.016232 -0.032464  0.011261      4.000000
  0.032464 -0.032464  0.011261      2.000000
  0.016232 -0.016232  0.011261      2.000000
  0.000000  0.000000  0.022523      2.000000
  0.016232  0.000000  0.022523      4.000000
  0.032464  0.000000  0.022523      4.000000
  0.048696  0.000000  0.022523      4.000000
 -0.048696  0.000000  0.022523      4.000000
 -0.032464  0.000000  0.022523      4.000000
 -0.016232  0.000000  0.022523      4.000000
  0.016232  0.016232  0.022523      4.000000
  0.032464  0.016232  0.022523      4.000000
  0.048696  0.016232  0.022523      4.000000
 -0.048696  0.016232  0.022523      4.000000
 -0.032464  0.016232  0.022523      4.000000
 -0.016232  0.016232  0.022523      2.000000
  0.016232  0.032464  0.022523      4.000000
  0.032464  0.032464  0.022523      4.000000
  0.048696  0.032464  0.022523      4.000000
 -0.048696  0.032464  0.022523      4.000000
 -0.032464  0.032464  0.022523      2.000000
  0.016232  0.048696  0.022523      4.000000
  0.032464  0.048696  0.022523      4.000000
  0.048696  0.048696  0.022523      4.000000
 -0.048696  0.048696  0.022523      2.000000
  0.016232 -0.048696  0.022523      4.000000
  0.032464 -0.048696  0.022523      4.000000
  0.048696 -0.048696  0.022523      2.000000
  0.016232 -0.032464  0.022523      4.000000
  0.032464 -0.032464  0.022523      2.000000
  0.016232 -0.016232  0.022523      2.000000
  0.000000  0.000000  0.033784      2.000000
  0.016232  0.000000  0.033784      4.000000
  0.032464  0.000000  0.033784      4.000000
  0.048696  0.000000  0.033784      4.000000
 -0.048696  0.000000  0.033784      4.000000
 -0.032464  0.000000  0.033784      4.000000
 -0.016232  0.000000  0.033784      4.000000
  0.016232  0.016232  0.033784      4.000000
  0.032464  0.016232  0.033784      4.000000
  0.048696  0.016232  0.033784      4.000000
 -0.048696  0.016232  0.033784      4.000000
 -0.032464  0.016232  0.033784      4.000000
 -0.016232  0.016232  0.033784      2.000000
  0.016232  0.032464  0.033784      4.000000
  0.032464  0.032464  0.033784      4.000000
  0.048696  0.032464  0.033784      4.000000
 -0.048696  0.032464  0.033784      4.000000
 -0.032464  0.032464  0.033784      2.000000
  0.016232  0.048696  0.033784      4.000000
  0.032464  0.048696  0.033784      4.000000
  0.048696  0.048696  0.033784      4.000000
 -0.048696  0.048696  0.033784      2.000000
  0.016232 -0.048696  0.033784      4.000000
  0.032464 -0.048696  0.033784      4.000000
  0.048696 -0.048696  0.033784      2.000000
  0.016232 -0.032464  0.033784      4.000000
  0.032464 -0.032464  0.033784      2.000000
  0.016232 -0.016232  0.033784      2.000000
 


--------------------------------------------------------------------------------------------------------




 Dimension of arrays:
   k-points           NKPTS =    100   k-points in BZ     NKDIM =    100   number of bands    NBANDS=    108
   number of dos      NEDOS =   2401   number of ions     NIONS =     48
   non local maximal  LDIM  =      5   non local SUM 2l+1 LMDIM =     13
   total plane-waves  NPLWV = 302400
   max r-space proj   IRMAX =   6359   max aug-charges    IRDMAX=  35415
   dimension x,y,z NGX =    60 NGY =   60 NGZ =   84
   dimension x,y,z NGXF=   120 NGYF=  120 NGZF=  168
   support grid    NGXF=   120 NGYF=  120 NGZF=  168
   ions per type =              24   4   4  12   4
   NGX,Y,Z   is equivalent  to a cutoff of  11.33, 11.33, 11.01 a.u.
   NGXF,Y,Z  is equivalent  to a cutoff of  22.67, 22.67, 22.02 a.u.

 SYSTEM =  unknown system                          
 POSCAR =  CH3PbI3 tetragonal                      

 Startparameter for this run:
   NWRITE =      2    write-flag & timer
   PREC   = accura    normal or accurate (medium, high low for compatibility)
   ISTART =      0    job   : 0-new  1-cont  2-samecut
   ICHARG =      2    charge: 1-file 2-atom 10-const
   ISPIN  =      1    spin polarized calculation?
   LNONCOLLINEAR =      F non collinear calculations
   LSORBIT =      F    spin-orbit coupling
   INIWAV =      1    electr: 0-lowe 1-rand  2-diag
   LASPH  =      F    aspherical Exc in radial PAW
   METAGGA=      F    non-selfconsistent MetaGGA calc.

 Electronic Relaxation 1
   ENCUT  =  400.0 eV  29.40 Ry    5.42 a.u.  14.35 14.35 20.69*2*pi/ulx,y,z
   ENINI  =  400.0     initial cutoff
   ENAUG  =  627.1 eV  augmentation charge cutoff
   NELM   =     60;   NELMIN=  2; NELMDL= -5     # of ELM steps 
   EDIFF  = 0.1E-04   stopping-criterion for ELM
   LREAL  =      T    real-space projection
   NLSPLINE    = F    spline interpolate recip. space projectors
   LCOMPAT=      F    compatible to vasp.4.4
   GGA_COMPAT  = T    GGA compatible to vasp.4.4-vasp.4.6
   LMAXPAW     = -100 max onsite density
   LMAXMIX     =    4 max onsite mixed and CHGCAR
   VOSKOWN=      0    Vosko Wilk Nusair interpolation
   ROPT   =   -0.00025  -0.00025  -0.00025  -0.00025
   ROPT   =   -0.00025
 Ionic relaxation
   EDIFFG = -.1E-01   stopping-criterion for IOM
   NSW    =      0    number of steps for IOM
   NBLOCK =      1;   KBLOCK =      1    inner block; outer block 
   IBRION =     -1    ionic relax: 0-MD 1-quasi-New 2-CG
   NFREE  =      0    steps in history (QN), initial steepest desc. (CG)
   ISIF   =      2    stress and relaxation
   IWAVPR =     10    prediction:  0-non 1-charg 2-wave 3-comb
   ISYM   =      2    0-nonsym 1-usesym 2-fastsym
   LCORR  =      T    Harris-Foulkes like correction to forces

   POTIM  = 0.5000    time-step for ionic-motion
   TEIN   =    0.0    initial temperature
   TEBEG  =    0.0;   TEEND  =   0.0 temperature during run
   SMASS  =  -3.00    Nose mass-parameter (am)
   estimated Nose-frequenzy (Omega)   =  0.10E-29 period in steps =****** mass=  -0.177E-26a.u.
   SCALEE = 1.0000    scale energy and forces
   NPACO  =    256;   APACO  = 16.0  distance and # of slots for P.C.
   PSTRESS=    0.0 pullay stress

  Mass of Ions in am
   POMASS =   1.00207.20 12.01126.90 14.00
  Ionic Valenz
   ZVAL   =   1.00  4.00  4.00  7.00  5.00
  Atomic Wigner-Seitz radii
   RWIGS  =  -1.00 -1.00 -1.00 -1.00 -1.00
  virtual crystal weights 
   VCA    =   1.00  1.00  1.00  1.00  1.00
   NELECT =     160.0000    total number of electrons
   NUPDOWN=      -1.0000    fix difference up-down

 DOS related values:
   EMIN   = -25.00;   EMAX   = 10.00  energy-range for DOS
   EFERMI =   0.00
   ISMEAR =     0;   SIGMA  =   0.03  broadening in eV -4-tet -1-fermi 0-gaus

 Electronic relaxation 2 (details)
   IALGO  =     38    algorithm
   LDIAG  =      T    sub-space diagonalisation (order eigenvalues)
   LSUBROT=      F    optimize rotation matrix (better conditioning)
   TURBO    =      0    0=normal 1=particle mesh
   IRESTART =      0    0=no restart 2=restart with 2 vectors
   NREBOOT  =      0    no. of reboots
   NMIN     =      0    reboot dimension
   EREF     =   0.00    reference energy to select bands
   IMIX   =      4    mixing-type and parameters
     AMIX     =   0.40;   BMIX     =  1.00
     AMIX_MAG =   1.60;   BMIX_MAG =  1.00
     AMIN     =   0.10
     WC   =   100.;   INIMIX=   1;  MIXPRE=   1;  MAXMIX= -45

 Intra band minimization:
   WEIMIN = 0.0000     energy-eigenvalue tresh-hold
   EBREAK =  0.23E-07  absolut break condition
   DEPER  =   0.30     relativ break condition  

   TIME   =   0.40     timestep for ELM

  volume/ion in A,a.u.               =      20.47       138.14
  Fermi-wavevector in a.u.,A,eV,Ry     =   0.893975  1.689367 10.873653  0.799191
  Thomas-Fermi vector in A             =   2.016121
 
 Write flags
   LWAVE        =      F    write WAVECAR
   LDOWNSAMPLE  =      F    k-point downsampling of WAVECAR
   LCHARG       =      F    write CHGCAR
   LVTOT        =      F    write LOCPOT, total local potential
   LVHAR        =      F    write LOCPOT, Hartree potential only
   LELF         =      F    write electronic localiz. function (ELF)
   LORBIT       =     11    0 simple, 1 ext, 2 COOP (PROOUT), +10 PAW based schemes


 Dipole corrections
   LMONO  =      F    monopole corrections only (constant potential shift)
   LDIPOL =      F    correct potential (dipole corrections)
   IDIPOL =      0    1-x, 2-y, 3-z, 4-all directions 
   EPSILON=  1.0000000 bulk dielectric constant

 Exchange correlation treatment:
   GGA     =    PE    GGA type
   LEXCH   =     8    internal setting for exchange type
   VOSKOWN=      0    Vosko Wilk Nusair interpolation
   LHFCALC =     F    Hartree Fock is set to
   LHFONE  =     F    Hartree Fock one center treatment
   AEXX    =    0.0000 exact exchange contribution

 Linear response parameters
   LEPSILON=     F    determine dielectric tensor
   LRPA    =     F    only Hartree local field effects (RPA)
   LNABLA  =     F    use nabla operator in PAW spheres
   LVEL    =     F    velocity operator in full k-point grid
   LINTERFAST=   F  fast interpolation
   KINTER  =     0    interpolate to denser k-point grid
   CSHIFT  =0.1000    complex shift for real part using Kramers Kronig
   OMEGAMAX=  -1.0    maximum frequency
   DEG_THRESHOLD= 0.2000000E-02 threshold for treating states as degnerate
   RTIME   =   -0.100 relaxation time in fs
  (WPLASMAI=    0.000 imaginary part of plasma frequency in eV, 0.658/RTIME)
   DFIELD  = 0.0000000 0.0000000 0.0000000 field for delta impulse in time
 
 Orbital magnetization related:
   ORBITALMAG=     F  switch on orbital magnetization
   LCHIMAG   =     F  perturbation theory with respect to B field
   DQ        =  0.001000  dq finite difference perturbation B field
   LLRAUG    =     F  two centre corrections for induced B field



--------------------------------------------------------------------------------------------------------


 Static calculation
 charge density and potential will be updated during run
 non-spin polarized calculation
 Variant of blocked Davidson
 Davidson routine will perform the subspace rotation
 perform sub-space diagonalisation
    after iterative eigenvector-optimisation
 modified Broyden-mixing scheme, WC =      100.0
 initial mixing is a Kerker type mixing with AMIX =  0.4000 and BMIX =      1.0000
 Hartree-type preconditioning will be used
 using additional bands           28
 real space projection scheme for non local part
 use partial core corrections
 calculate Harris-corrections to forces 
   (improved forces if not selfconsistent)
 use gradient corrections 
 use of overlap-Matrix (Vanderbilt PP)
 Gauss-broadening in eV      SIGMA  =   0.03


--------------------------------------------------------------------------------------------------------


  energy-cutoff  :      400.00
  volume of cell :      982.58
      direct lattice vectors                 reciprocal lattice vectors
     8.800900459  0.000000000  0.000000000     0.113624737  0.000000000  0.000000000
     0.000000000  8.800900459  0.000000000     0.000000000  0.113624737  0.000000000
     0.000000000  0.000000000 12.685700417     0.000000000  0.000000000  0.078828915

  length of vectors
     8.800900459  8.800900459 12.685700417     0.113624737  0.113624737  0.078828915


 
 k-points in units of 2pi/SCALE and weight: Automatic Mesh                          
   0.00000000  0.00000000  0.00000000       0.003
   0.01623211  0.00000000  0.00000000       0.012
   0.03246421  0.00000000  0.00000000       0.012
   0.04869632  0.00000000  0.00000000       0.012
   0.01623211  0.01623211  0.00000000       0.006
   0.03246421  0.01623211  0.00000000       0.012
   0.04869632  0.01623211  0.00000000       0.012
  -0.04869632  0.01623211  0.00000000       0.012
  -0.03246421  0.01623211  0.00000000       0.012
  -0.01623211  0.01623211  0.00000000       0.006
   0.03246421  0.03246421  0.00000000       0.006
   0.04869632  0.03246421  0.00000000       0.012
  -0.04869632  0.03246421  0.00000000       0.012
  -0.03246421  0.03246421  0.00000000       0.006
   0.04869632  0.04869632  0.00000000       0.006
  -0.04869632  0.04869632  0.00000000       0.006
   0.00000000  0.00000000  0.01126127       0.006
   0.01623211  0.00000000  0.01126127       0.012
   0.03246421  0.00000000  0.01126127       0.012
   0.04869632  0.00000000  0.01126127       0.012
  -0.04869632  0.00000000  0.01126127       0.012
  -0.03246421  0.00000000  0.01126127       0.012
  -0.01623211  0.00000000  0.01126127       0.012
   0.01623211  0.01623211  0.01126127       0.012
   0.03246421  0.01623211  0.01126127       0.012
   0.04869632  0.01623211  0.01126127       0.012
  -0.04869632  0.01623211  0.01126127       0.012
  -0.03246421  0.01623211  0.01126127       0.012
  -0.01623211  0.01623211  0.01126127       0.006
   0.01623211  0.03246421  0.01126127       0.012
   0.03246421  0.03246421  0.01126127       0.012
   0.04869632  0.03246421  0.01126127       0.012
  -0.04869632  0.03246421  0.01126127       0.012
  -0.03246421  0.03246421  0.01126127       0.006
   0.01623211  0.04869632  0.01126127       0.012
   0.03246421  0.04869632  0.01126127       0.012
   0.04869632  0.04869632  0.01126127       0.012
  -0.04869632  0.04869632  0.01126127       0.006
   0.01623211 -0.04869632  0.01126127       0.012
   0.03246421 -0.04869632  0.01126127       0.012
   0.04869632 -0.04869632  0.01126127       0.006
   0.01623211 -0.03246421  0.01126127       0.012
   0.03246421 -0.03246421  0.01126127       0.006
   0.01623211 -0.01623211  0.01126127       0.006
   0.00000000  0.00000000  0.02252255       0.006
   0.01623211  0.00000000  0.02252255       0.012
   0.03246421  0.00000000  0.02252255       0.012
   0.04869632  0.00000000  0.02252255       0.012
  -0.04869632  0.00000000  0.02252255       0.012
  -0.03246421  0.00000000  0.02252255       0.012
  -0.01623211  0.00000000  0.02252255       0.012
   0.01623211  0.01623211  0.02252255       0.012
   0.03246421  0.01623211  0.02252255       0.012
   0.04869632  0.01623211  0.02252255       0.012
  -0.04869632  0.01623211  0.02252255       0.012
  -0.03246421  0.01623211  0.02252255       0.012
  -0.01623211  0.01623211  0.02252255       0.006
   0.01623211  0.03246421  0.02252255       0.012
   0.03246421  0.03246421  0.02252255       0.012
   0.04869632  0.03246421  0.02252255       0.012
  -0.04869632  0.03246421  0.02252255       0.012
  -0.03246421  0.03246421  0.02252255       0.006
   0.01623211  0.04869632  0.02252255       0.012
   0.03246421  0.04869632  0.02252255       0.012
   0.04869632  0.04869632  0.02252255       0.012
  -0.04869632  0.04869632  0.02252255       0.006
   0.01623211 -0.04869632  0.02252255       0.012
   0.03246421 -0.04869632  0.02252255       0.012
   0.04869632 -0.04869632  0.02252255       0.006
   0.01623211 -0.03246421  0.02252255       0.012
   0.03246421 -0.03246421  0.02252255       0.006
   0.01623211 -0.01623211  0.02252255       0.006
   0.00000000  0.00000000  0.03378382       0.006
   0.01623211  0.00000000  0.03378382       0.012
   0.03246421  0.00000000  0.03378382       0.012
   0.04869632  0.00000000  0.03378382       0.012
  -0.04869632  0.00000000  0.03378382       0.012
  -0.03246421  0.00000000  0.03378382       0.012
  -0.01623211  0.00000000  0.03378382       0.012
   0.01623211  0.01623211  0.03378382       0.012
   0.03246421  0.01623211  0.03378382       0.012
   0.04869632  0.01623211  0.03378382       0.012
  -0.04869632  0.01623211  0.03378382       0.012
  -0.03246421  0.01623211  0.03378382       0.012
  -0.01623211  0.01623211  0.03378382       0.006
   0.01623211  0.03246421  0.03378382       0.012
   0.03246421  0.03246421  0.03378382       0.012
   0.04869632  0.03246421  0.03378382       0.012
  -0.04869632  0.03246421  0.03378382       0.012
  -0.03246421  0.03246421  0.03378382       0.006
   0.01623211  0.04869632  0.03378382       0.012
   0.03246421  0.04869632  0.03378382       0.012
   0.04869632  0.04869632  0.03378382       0.012
  -0.04869632  0.04869632  0.03378382       0.006
   0.01623211 -0.04869632  0.03378382       0.012
   0.03246421 -0.04869632  0.03378382       0.012
   0.04869632 -0.04869632  0.03378382       0.006
   0.01623211 -0.03246421  0.03378382       0.012
   0.03246421 -0.03246421  0.03378382       0.006
   0.01623211 -0.01623211  0.03378382       0.006
 
 k-points in reciprocal lattice and weights: Automatic Mesh                          
   0.00000000  0.00000000  0.00000000       0.003
   0.14285714  0.00000000  0.00000000       0.012
   0.28571429  0.00000000  0.00000000       0.012
   0.42857143  0.00000000  0.00000000       0.012
   0.14285714  0.14285714  0.00000000       0.006
   0.28571429  0.14285714  0.00000000       0.012
   0.42857143  0.14285714  0.00000000       0.012
  -0.42857143  0.14285714  0.00000000       0.012
  -0.28571429  0.14285714  0.00000000       0.012
  -0.14285714  0.14285714  0.00000000       0.006
   0.28571429  0.28571429  0.00000000       0.006
   0.42857143  0.28571429  0.00000000       0.012
  -0.42857143  0.28571429  0.00000000       0.012
  -0.28571429  0.28571429  0.00000000       0.006
   0.42857143  0.42857143  0.00000000       0.006
  -0.42857143  0.42857143  0.00000000       0.006
   0.00000000  0.00000000  0.14285714       0.006
   0.14285714  0.00000000  0.14285714       0.012
   0.28571429  0.00000000  0.14285714       0.012
   0.42857143  0.00000000  0.14285714       0.012
  -0.42857143  0.00000000  0.14285714       0.012
  -0.28571429  0.00000000  0.14285714       0.012
  -0.14285714  0.00000000  0.14285714       0.012
   0.14285714  0.14285714  0.14285714       0.012
   0.28571429  0.14285714  0.14285714       0.012
   0.42857143  0.14285714  0.14285714       0.012
  -0.42857143  0.14285714  0.14285714       0.012
  -0.28571429  0.14285714  0.14285714       0.012
  -0.14285714  0.14285714  0.14285714       0.006
   0.14285714  0.28571429  0.14285714       0.012
   0.28571429  0.28571429  0.14285714       0.012
   0.42857143  0.28571429  0.14285714       0.012
  -0.42857143  0.28571429  0.14285714       0.012
  -0.28571429  0.28571429  0.14285714       0.006
   0.14285714  0.42857143  0.14285714       0.012
   0.28571429  0.42857143  0.14285714       0.012
   0.42857143  0.42857143  0.14285714       0.012
  -0.42857143  0.42857143  0.14285714       0.006
   0.14285714 -0.42857143  0.14285714       0.012
   0.28571429 -0.42857143  0.14285714       0.012
   0.42857143 -0.42857143  0.14285714       0.006
   0.14285714 -0.28571429  0.14285714       0.012
   0.28571429 -0.28571429  0.14285714       0.006
   0.14285714 -0.14285714  0.14285714       0.006
   0.00000000  0.00000000  0.28571429       0.006
   0.14285714  0.00000000  0.28571429       0.012
   0.28571429  0.00000000  0.28571429       0.012
   0.42857143  0.00000000  0.28571429       0.012
  -0.42857143  0.00000000  0.28571429       0.012
  -0.28571429  0.00000000  0.28571429       0.012
  -0.14285714  0.00000000  0.28571429       0.012
   0.14285714  0.14285714  0.28571429       0.012
   0.28571429  0.14285714  0.28571429       0.012
   0.42857143  0.14285714  0.28571429       0.012
  -0.42857143  0.14285714  0.28571429       0.012
  -0.28571429  0.14285714  0.28571429       0.012
  -0.14285714  0.14285714  0.28571429       0.006
   0.14285714  0.28571429  0.28571429       0.012
   0.28571429  0.28571429  0.28571429       0.012
   0.42857143  0.28571429  0.28571429       0.012
  -0.42857143  0.28571429  0.28571429       0.012
  -0.28571429  0.28571429  0.28571429       0.006
   0.14285714  0.42857143  0.28571429       0.012
   0.28571429  0.42857143  0.28571429       0.012
   0.42857143  0.42857143  0.28571429       0.012
  -0.42857143  0.42857143  0.28571429       0.006
   0.14285714 -0.42857143  0.28571429       0.012
   0.28571429 -0.42857143  0.28571429       0.012
   0.42857143 -0.42857143  0.28571429       0.006
   0.14285714 -0.28571429  0.28571429       0.012
   0.28571429 -0.28571429  0.28571429       0.006
   0.14285714 -0.14285714  0.28571429       0.006
   0.00000000  0.00000000  0.42857143       0.006
   0.14285714  0.00000000  0.42857143       0.012
   0.28571429  0.00000000  0.42857143       0.012
   0.42857143  0.00000000  0.42857143       0.012
  -0.42857143  0.00000000  0.42857143       0.012
  -0.28571429  0.00000000  0.42857143       0.012
  -0.14285714  0.00000000  0.42857143       0.012
   0.14285714  0.14285714  0.42857143       0.012
   0.28571429  0.14285714  0.42857143       0.012
   0.42857143  0.14285714  0.42857143       0.012
  -0.42857143  0.14285714  0.42857143       0.012
  -0.28571429  0.14285714  0.42857143       0.012
  -0.14285714  0.14285714  0.42857143       0.006
   0.14285714  0.28571429  0.42857143       0.012
   0.28571429  0.28571429  0.42857143       0.012
   0.42857143  0.28571429  0.42857143       0.012
  -0.42857143  0.28571429  0.42857143       0.012
  -0.28571429  0.28571429  0.42857143       0.006
   0.14285714  0.42857143  0.42857143       0.012
   0.28571429  0.42857143  0.42857143       0.012
   0.42857143  0.42857143  0.42857143       0.012
  -0.42857143  0.42857143  0.42857143       0.006
   0.14285714 -0.42857143  0.42857143       0.012
   0.28571429 -0.42857143  0.42857143       0.012
   0.42857143 -0.42857143  0.42857143       0.006
   0.14285714 -0.28571429  0.42857143       0.012
   0.28571429 -0.28571429  0.42857143       0.006
   0.14285714 -0.14285714  0.42857143       0.006
 
 position of ions in fractional coordinates (direct lattice) 
   0.49909843  0.99503495  0.83993840
   0.52639264  0.86056240  0.73492129
   0.37355805  0.99544669  0.72831851
   0.58932224  0.07051352  0.61937142
   0.55958166  0.19786135  0.71537199
   0.70489525  0.07417947  0.72337308
   0.00000434  0.51813531  0.62970430
   0.99119070  0.67468553  0.72029568
   0.84237460  0.53577220  0.71884310
   0.01526169  0.49548079  0.86428760
   0.02717983  0.34739150  0.78089955
   0.16491196  0.47751978  0.78262955
   0.48186463  0.99999557  0.12970424
   0.46422777  0.15762541  0.21884313
   0.32531441  0.00880933  0.22029572
   0.50451915  0.98473829  0.36428751
   0.52248013  0.83508814  0.28262955
   0.65260844  0.97282015  0.28089955
   0.00496520  0.50090162  0.33993843
   0.00455332  0.62644197  0.22831844
   0.13943758  0.47360728  0.23492122
   0.92948648  0.41067773  0.11937133
   0.92582052  0.29510466  0.22337308
   0.80213865  0.44041837  0.21537200
   0.00087772  0.98301089  0.98958416
   0.49890561  0.49114329  0.99036649
   0.01698910  0.99912228  0.48958416
   0.50885671  0.50109442  0.49036649
   0.44566395  0.03550347  0.20844135
   0.49040219  0.97616774  0.75490981
   0.02383233  0.50959781  0.25490984
   0.96449655  0.55433605  0.70844135
   0.20526942  0.28201106  0.02018204
   0.70607151  0.19542445  0.98175193
   0.29098911  0.77942030  0.97827810
   0.81549176  0.67140067  0.97579776
   0.32859930  0.18450824  0.47579773
   0.22057972  0.70901086  0.47827808
   0.80457558  0.29392846  0.48175190
   0.71798891  0.79473059  0.52018202
   0.94794994  0.99144967  0.24090792
   0.52822417  0.53998435  0.24079969
   0.00855031  0.05205005  0.74090792
   0.46001562  0.47177583  0.74079968
   0.53673536  0.95206082  0.28890575
   0.59224492  0.08616072  0.70012080
   0.91383926  0.40775508  0.20012079
   0.04793926  0.46326464  0.78890575
 
 position of ions in cartesian coordinates  (Angst):
   4.39251564  8.75720351 10.65520689
   4.63272919  7.57372404  9.32299132
   3.28764725  8.76082727  9.23923046
   5.18656639  0.62058244  7.85716027
   4.92482252  1.74135803  9.07499473
   6.20371296  0.65284617  9.17649415
   0.00003817  4.56005731  7.98824014
   8.72337066  5.93784018  9.13745515
   7.41365501  4.71527779  9.11902816
   0.13431663  4.36067707 10.96409358
   0.23920697  3.05735800  9.90625773
   1.45137377  4.20260405  9.92820403
   4.24084262  8.80086151  1.64538917
   4.08562240  1.38724557  2.77617833
   2.86305975  0.07753001  2.79460552
   4.44022286  8.66658366  4.62124224
   4.59829562  7.34952761  3.58535383
   5.74354193  8.56169334  3.56340752
   0.04369820  4.40838534  4.31235707
   0.04007333  5.51325346  2.89637932
   1.22717629  4.16817049  2.98014017
   8.18031802  3.61433381  1.51430894
   8.14805425  2.59718672  2.83364395
   7.05954243  3.87607820  2.73214471
   0.00772476  8.65138098 12.55356813
   4.39081860  4.32250324 12.56349261
   0.14951939  8.79317570  6.21071792
   4.47839722  4.41008212  6.22064240
   3.92224403  0.31246248  2.64422453
   4.31598085  8.59115508  9.57655974
   0.20974599  4.48491961  3.23370992
   8.48843812  4.87865643  8.98707474
   1.80655574  2.48195127  0.25602331
   6.21406504  1.71991117 12.45421092
   2.56096618  6.85960046 12.41014295
   7.17706179  5.90893049 12.37867802
   2.89196970  1.62383867  6.03582744
   1.94130013  6.23993402  6.06729247
   7.08098956  2.58683515  6.11136033
   6.31894893  6.99434485  6.59887323
   8.34281308  8.72564981  3.05608573
   4.64884831  4.75234852  3.05471274
   0.07525041  0.45808734  9.39893594
   4.04855167  4.15205215  9.39756277
   4.72375444  8.37899247  3.66497185
   5.21228858  0.75829194  8.88152276
   8.04260833  3.58861187  2.53867236
   0.42190865  4.07714602 10.00782205
 


--------------------------------------------------------------------------------------------------------


 k-point  1 :   0.0000 0.0000 0.0000  plane waves:   17857
 k-point  2 :   0.1429 0.0000 0.0000  plane waves:   17855
 k-point  3 :   0.2857 0.0000 0.0000  plane waves:   17867
 k-point  4 :   0.4286 0.0000 0.0000  plane waves:   17866
 k-point  5 :   0.1429 0.1429 0.0000  plane waves:   17833
 k-point  6 :   0.2857 0.1429 0.0000  plane waves:   17861
 k-point  7 :   0.4286 0.1429 0.0000  plane waves:   17850
 k-point  8 :  -0.4286 0.1429 0.0000  plane waves:   17850
 k-point  9 :  -0.2857 0.1429 0.0000  plane waves:   17861
 k-point 10 :  -0.1429 0.1429 0.0000  plane waves:   17833
 k-point 11 :   0.2857 0.2857 0.0000  plane waves:   17822
 k-point 12 :   0.4286 0.2857 0.0000  plane waves:   17826
 k-point 13 :  -0.4286 0.2857 0.0000  plane waves:   17826
 k-point 14 :  -0.2857 0.2857 0.0000  plane waves:   17822
 k-point 15 :   0.4286 0.4286 0.0000  plane waves:   17860
 k-point 16 :  -0.4286 0.4286 0.0000  plane waves:   17860
 k-point 17 :   0.0000 0.0000 0.1429  plane waves:   17873
 k-point 18 :   0.1429 0.0000 0.1429  plane waves:   17853
 k-point 19 :   0.2857 0.0000 0.1429  plane waves:   17866
 k-point 20 :   0.4286 0.0000 0.1429  plane waves:   17875
 k-point 21 :  -0.4286 0.0000 0.1429  plane waves:   17875
 k-point 22 :  -0.2857 0.0000 0.1429  plane waves:   17866
 k-point 23 :  -0.1429 0.0000 0.1429  plane waves:   17853
 k-point 24 :   0.1429 0.1429 0.1429  plane waves:   17874
 k-point 25 :   0.2857 0.1429 0.1429  plane waves:   17855
 k-point 26 :   0.4286 0.1429 0.1429  plane waves:   17850
 k-point 27 :  -0.4286 0.1429 0.1429  plane waves:   17850
 k-point 28 :  -0.2857 0.1429 0.1429  plane waves:   17855
 k-point 29 :  -0.1429 0.1429 0.1429  plane waves:   17874
 k-point 30 :   0.1429 0.2857 0.1429  plane waves:   17855
 k-point 31 :   0.2857 0.2857 0.1429  plane waves:   17842
 k-point 32 :   0.4286 0.2857 0.1429  plane waves:   17829
 k-point 33 :  -0.4286 0.2857 0.1429  plane waves:   17829
 k-point 34 :  -0.2857 0.2857 0.1429  plane waves:   17842
 k-point 35 :   0.1429 0.4286 0.1429  plane waves:   17850
 k-point 36 :   0.2857 0.4286 0.1429  plane waves:   17829
 k-point 37 :   0.4286 0.4286 0.1429  plane waves:   17860
 k-point 38 :  -0.4286 0.4286 0.1429  plane waves:   17860
 k-point 39 :   0.1429-0.4286 0.1429  plane waves:   17850
 k-point 40 :   0.2857-0.4286 0.1429  plane waves:   17829
 k-point 41 :   0.4286-0.4286 0.1429  plane waves:   17860
 k-point 42 :   0.1429-0.2857 0.1429  plane waves:   17855
 k-point 43 :   0.2857-0.2857 0.1429  plane waves:   17842
 k-point 44 :   0.1429-0.1429 0.1429  plane waves:   17874
 k-point 45 :   0.0000 0.0000 0.2857  plane waves:   17865
 k-point 46 :   0.1429 0.0000 0.2857  plane waves:   17869
 k-point 47 :   0.2857 0.0000 0.2857  plane waves:   17865
 k-point 48 :   0.4286 0.0000 0.2857  plane waves:   17844
 k-point 49 :  -0.4286 0.0000 0.2857  plane waves:   17844
 k-point 50 :  -0.2857 0.0000 0.2857  plane waves:   17865
 k-point 51 :  -0.1429 0.0000 0.2857  plane waves:   17869
 k-point 52 :   0.1429 0.1429 0.2857  plane waves:   17855
 k-point 53 :   0.2857 0.1429 0.2857  plane waves:   17847
 k-point 54 :   0.4286 0.1429 0.2857  plane waves:   17837
 k-point 55 :  -0.4286 0.1429 0.2857  plane waves:   17837
 k-point 56 :  -0.2857 0.1429 0.2857  plane waves:   17847
 k-point 57 :  -0.1429 0.1429 0.2857  plane waves:   17855
 k-point 58 :   0.1429 0.2857 0.2857  plane waves:   17847
 k-point 59 :   0.2857 0.2857 0.2857  plane waves:   17850
 k-point 60 :   0.4286 0.2857 0.2857  plane waves:   17829
 k-point 61 :  -0.4286 0.2857 0.2857  plane waves:   17829
 k-point 62 :  -0.2857 0.2857 0.2857  plane waves:   17850
 k-point 63 :   0.1429 0.4286 0.2857  plane waves:   17837
 k-point 64 :   0.2857 0.4286 0.2857  plane waves:   17829
 k-point 65 :   0.4286 0.4286 0.2857  plane waves:   17856
 k-point 66 :  -0.4286 0.4286 0.2857  plane waves:   17856
 k-point 67 :   0.1429-0.4286 0.2857  plane waves:   17837
 k-point 68 :   0.2857-0.4286 0.2857  plane waves:   17829
 k-point 69 :   0.4286-0.4286 0.2857  plane waves:   17856
 k-point 70 :   0.1429-0.2857 0.2857  plane waves:   17847
 k-point 71 :   0.2857-0.2857 0.2857  plane waves:   17850
 k-point 72 :   0.1429-0.1429 0.2857  plane waves:   17855
 k-point 73 :   0.0000 0.0000 0.4286  plane waves:   17866
 k-point 74 :   0.1429 0.0000 0.4286  plane waves:   17889
 k-point 75 :   0.2857 0.0000 0.4286  plane waves:   17832
 k-point 76 :   0.4286 0.0000 0.4286  plane waves:   17831
 k-point 77 :  -0.4286 0.0000 0.4286  plane waves:   17831
 k-point 78 :  -0.2857 0.0000 0.4286  plane waves:   17832
 k-point 79 :  -0.1429 0.0000 0.4286  plane waves:   17889
 k-point 80 :   0.1429 0.1429 0.4286  plane waves:   17866
 k-point 81 :   0.2857 0.1429 0.4286  plane waves:   17849
 k-point 82 :   0.4286 0.1429 0.4286  plane waves:   17848
 k-point 83 :  -0.4286 0.1429 0.4286  plane waves:   17848
 k-point 84 :  -0.2857 0.1429 0.4286  plane waves:   17849
 k-point 85 :  -0.1429 0.1429 0.4286  plane waves:   17866
 k-point 86 :   0.1429 0.2857 0.4286  plane waves:   17849
 k-point 87 :   0.2857 0.2857 0.4286  plane waves:   17847
 k-point 88 :   0.4286 0.2857 0.4286  plane waves:   17839
 k-point 89 :  -0.4286 0.2857 0.4286  plane waves:   17839
 k-point 90 :  -0.2857 0.2857 0.4286  plane waves:   17847
 k-point 91 :   0.1429 0.4286 0.4286  plane waves:   17848
 k-point 92 :   0.2857 0.4286 0.4286  plane waves:   17839
 k-point 93 :   0.4286 0.4286 0.4286  plane waves:   17828
 k-point 94 :  -0.4286 0.4286 0.4286  plane waves:   17828
 k-point 95 :   0.1429-0.4286 0.4286  plane waves:   17848
 k-point 96 :   0.2857-0.4286 0.4286  plane waves:   17839
 k-point 97 :   0.4286-0.4286 0.4286  plane waves:   17828
 k-point 98 :   0.1429-0.2857 0.4286  plane waves:   17849
 k-point 99 :   0.2857-0.2857 0.4286  plane waves:   17847
 k-point ** :   0.1429-0.1429 0.4286  plane waves:   17866

 maximum and minimum number of plane-waves per node :      4494     4436

 maximum number of plane-waves:     17889
 maximum index in each direction: 
   IXMAX=   14   IYMAX=   14   IZMAX=   20
   IXMIN=  -14   IYMIN=  -14   IZMIN=  -21


 real space projection operators:
  total allocation   :      11911.27 KBytes
  max/ min on nodes  :       2987.23       2969.23


 parallel 3D FFT for wavefunctions:
    minimum data exchange during FFTs selected (reduces bandwidth)
 parallel 3D FFT for charge:
    minimum data exchange during FFTs selected (reduces bandwidth)


 total amount of memory used by VASP MPI-rank0    96380. kBytes
=======================================================================

   base      :      30000. kBytes
   nonlr-proj:       8849. kBytes
   fftplans  :       5145. kBytes
   grid      :       8225. kBytes
   one-center:         97. kBytes
   wavefun   :      44064. kBytes
 
     INWAV:  cpu time    0.0000: real time    0.0003
 Broyden mixing: mesh for mixing (old mesh)
   NGX = 29   NGY = 29   NGZ = 41
  (NGX  =120   NGY  =120   NGZ  =168)
  gives a total of  34481 points

 initial charge density was supplied:
 charge density of overlapping atoms calculated
 number of electron     160.0000000 magnetization 
 keeping initial charge density in first step


--------------------------------------------------------------------------------------------------------


 Maximum index for non-local projection operator         1552
 Maximum index for augmentation-charges         1259 (set IRDMAX)


--------------------------------------------------------------------------------------------------------


 First call to EWALD:  gamma=   0.178
 Maximum number of real-space cells 3x 3x 2
 Maximum number of reciprocal cells 2x 2x 3

    FEWALD:  cpu time    0.0382: real time    0.0382


--------------------------------------- Iteration      1(   1)  ---------------------------------------


    POTLOK:  cpu time    0.1139: real time    0.1297
    SETDIJ:  cpu time    0.0761: real time    0.0762
     EDDAV:  cpu time    7.0024: real time    7.0502
       DOS:  cpu time    0.2762: real time    0.2762
    --------------------------------------------
      LOOP:  cpu time    7.4685: real time    7.5324

 eigenvalue-minimisations  : 21600
 total energy-change (2. order) : 0.8397323E+03  (-0.5338622E+04)
 number of electron     160.0000000 magnetization 
 augmentation part      160.0000000 magnetization 

 Free energy of the ion-electron system (eV)
  ---------------------------------------------------
  alpha Z        PSCENC =        83.34627334
  Ewald energy   TEWEN  =     -4243.39431341
  -Hartree energ DENC   =     -1564.29848986
  -exchange      EXHF   =         0.00000000
  -V(xc)+E(xc)   XCENC  =      -480.92407889
  PAW double counting   =      3090.57693087    -2248.11643183
  entropy T*S    EENTRO =        -0.00471007
  eigenvalues    EBANDS =        78.22555045
  atomic energy  EATOM  =      6124.32156033
  Solvation  Ediel_sol  =         0.00000000
  ---------------------------------------------------
  free energy    TOTEN  =       839.73229093 eV

  energy without entropy =      839.73700100  energy(sigma->0) =      839.73464597


--------------------------------------------------------------------------------------------------------




--------------------------------------- Iteration      1(   2)  ---------------------------------------


     EDDAV:  cpu time    9.4121: real time    9.4168
       DOS:  cpu time    0.2918: real time    0.2919
    --------------------------------------------
      LOOP:  cpu time    9.7040: real time    9.7087

 eigenvalue-minimisations  : 30942
 total energy-change (2. order) :-0.9444611E+03  (-0.9229662E+03)
 number of electron     160.0000000 magnetization 
 augmentation part      160.0000000 magnetization 

 Free energy of the ion-electron system (eV)
  ---------------------------------------------------
  alpha Z        PSCENC =        83.34627334
  Ewald energy   TEWEN  =     -4243.39431341
  -Hartree energ DENC   =     -1564.29848986
  -exchange      EXHF   =         0.00000000
  -V(xc)+E(xc)   XCENC  =      -480.92407889
  PAW double counting   =      3090.57693087    -2248.11643183
  entropy T*S    EENTRO =        -0.00000000
  eigenvalues    EBANDS =      -866.24027408
  atomic energy  EATOM  =      6124.32156033
  Solvation  Ediel_sol  =         0.00000000
  ---------------------------------------------------
  free energy    TOTEN  =      -104.72882352 eV

  energy without entropy =     -104.72882352  energy(sigma->0) =     -104.72882352


--------------------------------------------------------------------------------------------------------




--------------------------------------- Iteration      1(   3)  ---------------------------------------


     EDDAV:  cpu time    8.0623: real time    8.0702
       DOS:  cpu time    0.2650: real time    0.2652
    --------------------------------------------
      LOOP:  cpu time    8.3274: real time    8.3354

 eigenvalue-minimisations  : 25488
 total energy-change (2. order) :-0.1053920E+03  (-0.1049233E+03)
 number of electron     160.0000000 magnetization 
 augmentation part      160.0000000 magnetization 

 Free energy of the ion-electron system (eV)
  ---------------------------------------------------
  alpha Z        PSCENC =        83.34627334
  Ewald energy   TEWEN  =     -4243.39431341
  -Hartree energ DENC   =     -1564.29848986
  -exchange      EXHF   =         0.00000000
  -V(xc)+E(xc)   XCENC  =      -480.92407889
  PAW double counting   =      3090.57693087    -2248.11643183
  entropy T*S    EENTRO =        -0.00000000
  eigenvalues    EBANDS =      -971.63224265
  atomic energy  EATOM  =      6124.32156033
  Solvation  Ediel_sol  =         0.00000000
  ---------------------------------------------------
  free energy    TOTEN  =      -210.12079210 eV

  energy without entropy =     -210.12079210  energy(sigma->0) =     -210.12079210


--------------------------------------------------------------------------------------------------------




--------------------------------------- Iteration      1(   4)  ---------------------------------------


     EDDAV:  cpu time   10.6291: real time   10.6329
       DOS:  cpu time    0.3017: real time    0.3017
    --------------------------------------------
      LOOP:  cpu time   10.9308: real time   10.9345

 eigenvalue-minimisations  : 35928
 total energy-change (2. order) :-0.5078011E+01  (-0.5071734E+01)
 number of electron     160.0000000 magnetization 
 augmentation part      160.0000000 magnetization 

 Free energy of the ion-electron system (eV)
  ---------------------------------------------------
  alpha Z        PSCENC =        83.34627334
  Ewald energy   TEWEN  =     -4243.39431341
  -Hartree energ DENC   =     -1564.29848986
  -exchange      EXHF   =         0.00000000
  -V(xc)+E(xc)   XCENC  =      -480.92407889
  PAW double counting   =      3090.57693087    -2248.11643183
  entropy T*S    EENTRO =        -0.00000000
  eigenvalues    EBANDS =      -976.71025327
  atomic energy  EATOM  =      6124.32156033
  Solvation  Ediel_sol  =         0.00000000
  ---------------------------------------------------
  free energy    TOTEN  =      -215.19880272 eV

  energy without entropy =     -215.19880272  energy(sigma->0) =     -215.19880272


--------------------------------------------------------------------------------------------------------




--------------------------------------- Iteration      1(   5)  ---------------------------------------


     EDDAV:  cpu time    8.7295: real time    8.7347
       DOS:  cpu time    0.3150: real time    0.3152
    CHARGE:  cpu time    1.7614: real time    1.7617
    MIXING:  cpu time    0.3963: real time    0.3965
    --------------------------------------------
      LOOP:  cpu time   11.2022: real time   11.2081

 eigenvalue-minimisations  : 27198
 total energy-change (2. order) :-0.3745284E-01  (-0.3743087E-01)
 number of electron     159.9999994 magnetization 
 augmentation part      -23.0016897 magnetization 

 Broyden mixing:
  rms(total) = 0.19304E+01    rms(broyden)= 0.19296E+01
  rms(prec ) = 0.23721E+01
  weight for this iteration     100.00

 Free energy of the ion-electron system (eV)
  ---------------------------------------------------
  alpha Z        PSCENC =        83.34627334
  Ewald energy   TEWEN  =     -4243.39431341
  -Hartree energ DENC   =     -1564.29848986
  -exchange      EXHF   =         0.00000000
  -V(xc)+E(xc)   XCENC  =      -480.92407889
  PAW double counting   =      3090.57693087    -2248.11643183
  entropy T*S    EENTRO =        -0.00000000
  eigenvalues    EBANDS =      -976.74770611
  atomic energy  EATOM  =      6124.32156033
  Solvation  Ediel_sol  =         0.00000000
  ---------------------------------------------------
  free energy    TOTEN  =      -215.23625556 eV

  energy without entropy =     -215.23625556  energy(sigma->0) =     -215.23625556


--------------------------------------------------------------------------------------------------------




--------------------------------------- Iteration      1(   6)  ---------------------------------------


    POTLOK:  cpu time    0.1140: real time    0.1163
    SETDIJ:  cpu time    0.0632: real time    0.0632
     EDDAV:  cpu time   10.2355: real time   10.2396
       DOS:  cpu time    0.2602: real time    0.2602
    CHARGE:  cpu time    1.9246: real time    1.9252
    MIXING:  cpu time    0.4191: real time    0.4192
    --------------------------------------------
      LOOP:  cpu time   13.0166: real time   13.0236

 eigenvalue-minimisations  : 33372
 total energy-change (2. order) : 0.1051386E+02  (-0.2201176E+01)
 number of electron     159.9999994 magnetization 
 augmentation part      -23.0260177 magnetization 

 Broyden mixing:
  rms(total) = 0.92855E+00    rms(broyden)= 0.92844E+00
  rms(prec ) = 0.10927E+01
  weight for this iteration     100.00

 eigenvalues of (default mixing * dielectric matrix)
  average eigenvalue GAMMA=   1.4631
  1.4631

 Free energy of the ion-electron system (eV)
  ---------------------------------------------------
  alpha Z        PSCENC =        83.34627334
  Ewald energy   TEWEN  =     -4243.39431341
  -Hartree energ DENC   =     -1675.30674292
  -exchange      EXHF   =         0.00000000
  -V(xc)+E(xc)   XCENC  =      -473.03458784
  PAW double counting   =      3464.79457872    -2624.58202361
  entropy T*S    EENTRO =        -0.00000000
  eigenvalues    EBANDS =      -860.86714206
  atomic energy  EATOM  =      6124.32156033
  Solvation  Ediel_sol  =         0.00000000
  ---------------------------------------------------
  free energy    TOTEN  =      -204.72239745 eV

  energy without entropy =     -204.72239745  energy(sigma->0) =     -204.72239745


--------------------------------------------------------------------------------------------------------




--------------------------------------- Iteration      1(   7)  ---------------------------------------


    POTLOK:  cpu time    0.1194: real time    0.1347
    SETDIJ:  cpu time    0.2426: real time    0.2426
     EDDAV:  cpu time   11.9905: real time   11.9938
       DOS:  cpu time    0.2757: real time    0.2757
    CHARGE:  cpu time    1.8516: real time    1.8525
    MIXING:  cpu time    0.4081: real time    0.4083
    --------------------------------------------
      LOOP:  cpu time   14.8880: real time   14.9075

 eigenvalue-minimisations  : 33012
 total energy-change (2. order) : 0.1400272E+01  (-0.6346891E+00)
 number of electron     159.9999994 magnetization 
 augmentation part      -23.0991908 magnetization 

 Broyden mixing:
  rms(total) = 0.42506E+00    rms(broyden)= 0.42492E+00
  rms(prec ) = 0.47697E+00
  weight for this iteration     100.00

 eigenvalues of (default mixing * dielectric matrix)
  average eigenvalue GAMMA=   1.8939
  1.4398  2.3480

 Free energy of the ion-electron system (eV)
  ---------------------------------------------------
  alpha Z        PSCENC =        83.34627334
  Ewald energy   TEWEN  =     -4243.39431341
  -Hartree energ DENC   =     -1733.33489089
  -exchange      EXHF   =         0.00000000
  -V(xc)+E(xc)   XCENC  =      -467.67920304
  PAW double counting   =      3738.16324615    -2899.24789599
  entropy T*S    EENTRO =        -0.00000000
  eigenvalues    EBANDS =      -805.49690231
  atomic energy  EATOM  =      6124.32156033
  Solvation  Ediel_sol  =         0.00000000
  ---------------------------------------------------
  free energy    TOTEN  =      -203.32212581 eV

  energy without entropy =     -203.32212581  energy(sigma->0) =     -203.32212581


--------------------------------------------------------------------------------------------------------




--------------------------------------- Iteration      1(   8)  ---------------------------------------


    POTLOK:  cpu time    0.1201: real time    0.1207
    SETDIJ:  cpu time    0.1793: real time    0.1794
     EDDAV:  cpu time   10.2876: real time   10.2910
       DOS:  cpu time    0.3236: real time    0.3238
    CHARGE:  cpu time    1.7713: real time    1.7715
    MIXING:  cpu time    0.3970: real time    0.3970
    --------------------------------------------
      LOOP:  cpu time   13.0788: real time   13.0833

 eigenvalue-minimisations  : 28458
 total energy-change (2. order) : 0.9778627E-01  (-0.1229973E+00)
 number of electron     159.9999994 magnetization 
 augmentation part      -23.1029401 magnetization 

 Broyden mixing:
  rms(total) = 0.96381E-01    rms(broyden)= 0.96338E-01
  rms(prec ) = 0.12102E+00
  weight for this iteration     100.00

 eigenvalues of (default mixing * dielectric matrix)
  average eigenvalue GAMMA=   1.6185
  2.3733  1.2411  1.2411

 Free energy of the ion-electron system (eV)
  ---------------------------------------------------
  alpha Z        PSCENC =        83.34627334
  Ewald energy   TEWEN  =     -4243.39431341
  -Hartree energ DENC   =     -1741.27528091
  -exchange      EXHF   =         0.00000000
  -V(xc)+E(xc)   XCENC  =      -465.58762903
  PAW double counting   =      3850.07807557    -3011.32402366
  entropy T*S    EENTRO =        -0.00000000
  eigenvalues    EBANDS =      -799.38900177
  atomic energy  EATOM  =      6124.32156033
  Solvation  Ediel_sol  =         0.00000000
  ---------------------------------------------------
  free energy    TOTEN  =      -203.22433954 eV

  energy without entropy =     -203.22433954  energy(sigma->0) =     -203.22433954


--------------------------------------------------------------------------------------------------------




--------------------------------------- Iteration      1(   9)  ---------------------------------------


    POTLOK:  cpu time    0.1192: real time    0.1199
    SETDIJ:  cpu time    0.0683: real time    0.0683
[...]


 


 total charge     
 
# of ion       s       p       d       tot
------------------------------------------
    1        0.639   0.047   0.000   0.687
    2        0.640   0.046   0.000   0.686
    3        0.640   0.046   0.000   0.686
    4        0.613   0.077   0.000   0.689
    5        0.604   0.076   0.000   0.681
    6        0.607   0.076   0.000   0.683
    7        0.640   0.047   0.000   0.687
    8        0.641   0.046   0.000   0.687
    9        0.641   0.046   0.000   0.687
   10        0.607   0.076   0.000   0.683
   11        0.606   0.076   0.000   0.681
   12        0.606   0.076   0.000   0.682
   13        0.640   0.047   0.000   0.687
   14        0.641   0.046   0.000   0.687
   15        0.641   0.046   0.000   0.687
   16        0.607   0.076   0.000   0.683
   17        0.606   0.076   0.000   0.683
   18        0.605   0.076   0.000   0.681
   19        0.639   0.047   0.000   0.687
   20        0.640   0.046   0.000   0.686
   21        0.640   0.046   0.000   0.686
   22        0.613   0.077   0.000   0.689
   23        0.607   0.076   0.000   0.683
   24        0.604   0.076   0.000   0.681
   25        1.808   0.916   0.110   2.834
   26        1.808   0.924   0.112   2.845
   27        1.808   0.917   0.110   2.836
   28        1.808   0.923   0.112   2.844
   29        1.330   2.908   0.000   4.238
   30        1.329   2.910   0.000   4.239
   31        1.329   2.909   0.000   4.239
   32        1.330   2.908   0.000   4.238
   33        1.505   2.808   0.007   4.320
   34        1.506   2.806   0.007   4.320
   35        1.507   2.803   0.008   4.317
   36        1.505   2.804   0.007   4.316
   37        1.505   2.804   0.007   4.316
   38        1.507   2.803   0.008   4.318
   39        1.506   2.806   0.007   4.319
   40        1.505   2.808   0.007   4.320
   41        1.506   2.805   0.008   4.318
   42        1.506   2.808   0.008   4.322
   43        1.506   2.805   0.008   4.319
   44        1.506   2.808   0.008   4.321
   45        1.234   2.736   0.000   3.970
   46        1.234   2.736   0.000   3.971
   47        1.234   2.736   0.000   3.971
   48        1.234   2.736   0.000   3.969
--------------------------------------------------
tot         50.523  61.396   0.533 112.453
 
    CHARGE:  cpu time    1.7659: real time    1.7683
    FORLOC:  cpu time    0.0358: real time    0.0358
    FORNL :  cpu time    2.0523: real time    2.0527
    STRESS:  cpu time    6.0274: real time    6.0296
    FORCOR:  cpu time    0.1101: real time    0.1121
    FORHAR:  cpu time    0.0624: real time    0.0625
    MIXING:  cpu time    0.4343: real time    0.4344
    OFIELD:  cpu time    0.0001: real time    0.0001

  FORCE on cell =-STRESS in cart. coord.  units (eV):
  Direction    XX          YY          ZZ          XY          YZ          ZX
  --------------------------------------------------------------------------------------
  Alpha Z    83.34627    83.34627    83.34627
  Ewald   -1453.20688 -1453.20733 -1336.99962   -39.29602   -59.59475    59.59473
  Hartree   545.64376   545.64376   658.32773    -7.00244   -46.50035    46.50035
  E(xc)    -615.52582  -615.52582  -615.54863    -0.05002     0.16713    -0.16713
  Local   -1700.09242 -1700.09213 -1933.64121    42.45617   108.72500  -108.72496
  n-local  1768.26849  1769.01551  1767.38844    -0.83762    -0.81328     0.85414
  augment  -470.47682  -470.47682  -471.39291    -0.70740     0.92228    -0.92218
  Kinetic  1843.79513  1845.15774  1853.47136     4.93970    -3.02775     2.94742
  Fock        0.00000     0.00000     0.00000     0.00000     0.00000     0.00000
  -------------------------------------------------------------------------------------
  Total       2.80646     2.80646     4.95143    -0.49776    -0.10204     0.10204
  in kB       4.57616     4.57616     8.07370    -0.81163    -0.16639     0.16639
  external pressure =        5.74 kB  Pullay stress =        0.00 kB


 VOLUME and BASIS-vectors are now :
 -----------------------------------------------------------------------------
  energy-cutoff  :      400.00
  volume of cell :      982.58
      direct lattice vectors                 reciprocal lattice vectors
     8.800900459  0.000000000  0.000000000     0.113624737  0.000000000  0.000000000
     0.000000000  8.800900459  0.000000000     0.000000000  0.113624737  0.000000000
     0.000000000  0.000000000 12.685700417     0.000000000  0.000000000  0.078828915

  length of vectors
     8.800900459  8.800900459 12.685700417     0.113624737  0.113624737  0.078828915


 FORCES acting on ions
    electron-ion (+dipol)            ewald-force                    non-local-force                 convergence-correction
 -----------------------------------------------------------------------------------------------
   0.310E+01 0.232E+00 -.542E+02   -.280E+01 0.539E+00 0.600E+02   -.303E+00 -.768E+00 -.583E+01   0.551E-03 0.532E-03 0.729E-05
   -.772E+01 0.548E+02 0.528E+01   0.929E+01 -.602E+02 -.655E+01   -.157E+01 0.548E+01 0.127E+01   0.633E-03 0.816E-04 -.206E-03
   0.545E+02 0.159E+00 0.108E+02   -.600E+02 0.626E+00 -.125E+02   0.552E+01 -.782E+00 0.169E+01   0.690E-05 0.609E-03 -.307E-03
   0.417E+00 0.598E+01 0.667E+02   -.591E+00 -.697E+01 -.740E+02   0.170E+00 0.967E+00 0.720E+01   0.255E-03 0.691E-03 0.290E-02
   0.152E+02 -.626E+02 -.108E+02   -.171E+02 0.693E+02 0.122E+02   0.192E+01 -.656E+01 -.129E+01   0.113E-02 -.247E-02 -.481E-03
   -.634E+02 0.486E+01 -.182E+02   0.703E+02 -.557E+01 0.202E+02   -.674E+01 0.703E+00 -.199E+01   -.252E-02 0.651E-03 -.695E-03
   -.124E+02 0.100E+02 0.523E+02   0.140E+02 -.116E+02 -.578E+02   -.157E+01 0.159E+01 0.545E+01   0.144E-03 -.604E-03 0.598E-03
   -.861E+01 -.546E+02 -.751E+00   0.976E+01 0.603E+02 0.143E+01   -.115E+01 -.568E+01 -.672E+00   0.944E-04 -.368E-03 0.466E-03
   0.541E+02 0.176E+01 0.735E-01   -.598E+02 -.251E+01 0.510E+00   0.576E+01 0.748E+00 -.581E+00   0.137E-03 -.608E-03 0.465E-03
   0.138E+02 -.157E+02 -.624E+02   -.158E+02 0.177E+02 0.691E+02   0.196E+01 -.194E+01 -.658E+01   0.542E-03 -.952E-03 -.317E-02
   0.815E+01 0.646E+02 0.460E+01   -.937E+01 -.715E+02 -.527E+01   0.120E+01 0.688E+01 0.661E+00   0.203E-03 0.300E-02 -.432E-05
   -.663E+02 -.716E+01 0.340E+01   0.734E+02 0.800E+01 -.393E+01   -.697E+01 -.831E+00 0.520E+00   -.326E-02 -.495E-03 -.580E-04
   -.100E+02 0.124E+02 0.523E+02   0.116E+02 -.140E+02 -.578E+02   -.159E+01 0.157E+01 0.545E+01   0.604E-03 -.143E-03 0.599E-03
   -.176E+01 -.541E+02 0.735E-01   0.251E+01 0.598E+02 0.510E+00   -.748E+00 -.576E+01 -.581E+00   0.608E-03 -.137E-03 0.465E-03
   0.546E+02 0.861E+01 -.751E+00   -.603E+02 -.976E+01 0.143E+01   0.568E+01 0.115E+01 -.672E+00   0.368E-03 -.940E-04 0.466E-03
   0.157E+02 -.138E+02 -.624E+02   -.177E+02 0.158E+02 0.691E+02   0.194E+01 -.196E+01 -.658E+01   0.952E-03 -.542E-03 -.317E-02
   0.716E+01 0.663E+02 0.340E+01   -.800E+01 -.734E+02 -.393E+01   0.831E+00 0.697E+01 0.520E+00   0.495E-03 0.326E-02 -.583E-04
   -.646E+02 -.815E+01 0.460E+01   0.715E+02 0.937E+01 -.527E+01   -.688E+01 -.120E+01 0.661E+00   -.300E-02 -.203E-03 -.471E-05
   -.232E+00 -.310E+01 -.542E+02   -.539E+00 0.280E+01 0.600E+02   0.768E+00 0.303E+00 -.583E+01   -.532E-03 -.551E-03 0.647E-05
   -.159E+00 -.545E+02 0.108E+02   -.626E+00 0.600E+02 -.125E+02   0.782E+00 -.552E+01 0.169E+01   -.609E-03 -.704E-05 -.307E-03
   -.548E+02 0.772E+01 0.528E+01   0.602E+02 -.929E+01 -.655E+01   -.548E+01 0.157E+01 0.127E+01   -.814E-04 -.633E-03 -.206E-03
   -.598E+01 -.417E+00 0.667E+02   0.697E+01 0.591E+00 -.740E+02   -.967E+00 -.170E+00 0.720E+01   -.691E-03 -.255E-03 0.290E-02
   -.486E+01 0.634E+02 -.182E+02   0.557E+01 -.703E+02 0.202E+02   -.703E+00 0.674E+01 -.199E+01   -.651E-03 0.252E-02 -.695E-03
   0.626E+02 -.152E+02 -.108E+02   -.693E+02 0.171E+02 0.122E+02   0.656E+01 -.192E+01 -.129E+01   0.247E-02 -.113E-02 -.481E-03
   -.286E+01 0.107E+02 0.165E+00   0.275E+01 -.106E+02 -.123E+00   0.105E+00 -.788E-01 -.448E-01   -.780E-03 0.297E-03 -.150E-04
   0.316E+01 -.689E+01 -.694E+00   -.310E+01 0.683E+01 0.809E+00   -.604E-01 0.554E-01 -.120E+00   0.810E-03 -.522E-03 0.242E-04
   -.107E+02 0.286E+01 0.165E+00   0.106E+02 -.275E+01 -.123E+00   0.788E-01 -.105E+00 -.448E-01   -.296E-03 0.781E-03 -.198E-04
   0.689E+01 -.316E+01 -.694E+00   -.683E+01 0.310E+01 0.809E+00   -.554E-01 0.604E-01 -.120E+00   0.520E-03 -.811E-03 0.196E-04
   0.486E+02 -.360E+02 0.600E+02   -.552E+02 0.421E+02 -.690E+02   0.665E+01 -.605E+01 0.902E+01   0.458E-02 -.259E-02 0.501E-02
   0.580E+02 0.634E+02 -.432E+02   -.655E+02 -.715E+02 0.496E+02   0.748E+01 0.811E+01 -.641E+01   0.472E-02 0.510E-02 -.311E-02
   -.634E+02 -.580E+02 -.432E+02   0.715E+02 0.655E+02 0.496E+02   -.811E+01 -.748E+01 -.641E+01   -.510E-02 -.472E-02 -.312E-02
   0.360E+02 -.486E+02 0.600E+02   -.421E+02 0.552E+02 -.690E+02   0.605E+01 -.665E+01 0.902E+01   0.259E-02 -.458E-02 0.501E-02
   -.262E+02 0.129E+02 0.101E-03   0.261E+02 -.128E+02 0.420E+00   0.119E+00 -.110E+00 -.426E+00   -.463E-03 -.228E-03 0.607E-04
   0.117E+02 0.131E+02 -.738E+00   -.121E+02 -.137E+02 0.650E+00   0.429E+00 0.533E+00 0.945E-01   0.358E-03 0.283E-03 0.367E-03
   -.357E+01 -.393E+01 -.427E+01   0.412E+01 0.445E+01 0.407E+01   -.555E+00 -.522E+00 0.193E+00   0.814E-04 0.144E-03 0.351E-03
   0.206E+02 -.335E+02 -.656E+00   -.203E+02 0.332E+02 0.671E+00   -.247E+00 0.278E+00 -.174E-01   -.229E-03 -.411E-03 -.906E-03
   0.335E+02 -.206E+02 -.656E+00   -.332E+02 0.203E+02 0.671E+00   -.278E+00 0.247E+00 -.174E-01   0.410E-03 0.229E-03 -.915E-03
   0.393E+01 0.357E+01 -.427E+01   -.445E+01 -.412E+01 0.407E+01   0.522E+00 0.555E+00 0.193E+00   -.143E-03 -.817E-04 0.342E-03
   -.131E+02 -.117E+02 -.738E+00   0.137E+02 0.121E+02 0.650E+00   -.533E+00 -.429E+00 0.945E-01   -.282E-03 -.359E-03 0.358E-03
   -.129E+02 0.262E+02 0.258E-03   0.128E+02 -.261E+02 0.420E+00   0.110E+00 -.119E+00 -.426E+00   0.227E-03 0.464E-03 0.524E-04
   -.245E+02 0.281E+02 0.172E+01   0.243E+02 -.284E+02 -.174E+01   0.134E+00 0.356E+00 0.250E-01   -.170E-02 0.123E-02 -.181E-03
   0.284E+02 0.290E+01 0.234E+01   -.288E+02 -.270E+01 -.243E+01   0.397E+00 -.203E+00 0.815E-01   0.167E-02 -.687E-03 -.185E-03
   -.281E+02 0.245E+02 0.172E+01   0.284E+02 -.243E+02 -.174E+01   -.356E+00 -.134E+00 0.250E-01   -.123E-02 0.170E-02 -.180E-03
   -.290E+01 -.284E+02 0.234E+01   0.270E+01 0.288E+02 -.243E+01   0.203E+00 -.397E+00 0.815E-01   0.685E-03 -.167E-02 -.184E-03
   -.298E+02 0.372E+02 -.340E+02   0.292E+02 -.366E+02 0.332E+02   0.641E+00 -.600E+00 0.753E+00   0.111E-02 0.952E-03 -.946E-03
   -.320E+02 -.364E+02 0.206E+02   0.311E+02 0.357E+02 -.195E+02   0.857E+00 0.602E+00 -.108E+01   0.189E-02 0.235E-02 0.123E-03
   0.364E+02 0.320E+02 0.206E+02   -.357E+02 -.311E+02 -.195E+02   -.602E+00 -.857E+00 -.108E+01   -.235E-02 -.189E-02 0.124E-03
   -.372E+02 0.298E+02 -.340E+02   0.366E+02 -.292E+02 0.332E+02   0.600E+00 -.641E+00 0.753E+00   -.950E-03 -.112E-02 -.944E-03
 -----------------------------------------------------------------------------------------------
   -.120E+02 0.120E+02 -.385E+01   -.284E-13 -.711E-14 0.639E-13   0.120E+02 -.120E+02 0.384E+01   0.398E-02 -.398E-02 0.153E-03
 
 
 POSITION                                       TOTAL-FORCE (eV/Angst)
 -----------------------------------------------------------------------------------
      4.39252      8.75720     10.65521         0.000448      0.003800      0.011704
      4.63273      7.57372      9.32299         0.001433     -0.003825      0.000567
      3.28765      8.76083      9.23923        -0.011321      0.003452     -0.006639
      5.18657      0.62058      7.85716        -0.002916     -0.015933     -0.092045
      4.92482      1.74136      9.07499        -0.025703      0.080814      0.017511
      6.20371      0.65285      9.17649         0.087994     -0.012182      0.030954
      0.00004      4.56006      7.98824         0.002909     -0.001999     -0.005905
      8.72337      5.93784      9.13746         0.000835      0.002516      0.004493
      7.41366      4.71528      9.11903        -0.000999      0.001386      0.003334
      0.13432      4.36068     10.96409        -0.025925      0.025824      0.085044
      0.23921      3.05736      9.90626        -0.016473     -0.086684     -0.011657
      1.45137      4.20260      9.92820         0.089342      0.011336     -0.008089
      4.24084      8.80086      1.64539         0.001999     -0.002909     -0.005905
      4.08562      1.38725      2.77618        -0.001386      0.000999      0.003334
      2.86306      0.07753      2.79461        -0.002516     -0.000835      0.004493
      4.44022      8.66658      4.62124        -0.025824      0.025925      0.085044
      4.59830      7.34953      3.58535        -0.011336     -0.089342     -0.008089
      5.74354      8.56169      3.56341         0.086684      0.016473     -0.011657
      0.04370      4.40839      4.31236        -0.003800     -0.000448      0.011704
      0.04007      5.51325      2.89638        -0.003452      0.011321     -0.006639
      1.22718      4.16817      2.98014         0.003825     -0.001433      0.000567
      8.18032      3.61433      1.51431         0.015933      0.002916     -0.092045
      8.14805      2.59719      2.83364         0.012182     -0.087994      0.030954
      7.05954      3.87608      2.73214        -0.080814      0.025703      0.017511
      0.00772      8.65138     12.55357        -0.004094      0.007358     -0.002393
      4.39082      4.32250     12.56349         0.001807     -0.000820     -0.004661
      0.14952      8.79318      6.21072        -0.007358      0.004094     -0.002393
      4.47840      4.41008      6.22064         0.000820     -0.001807     -0.004661
      3.92224      0.31246      2.64422        -0.000675      0.004782     -0.012173
      4.31598      8.59116      9.57656        -0.000787     -0.012245      0.001924
      0.20975      4.48492      3.23371         0.012245      0.000787      0.001924
      8.48844      4.87866      8.98707        -0.004782      0.000675     -0.012173
      1.80656      2.48195      0.25602        -0.004266     -0.004351     -0.005794
      6.21407      1.71991     12.45421        -0.002063     -0.002597      0.007105
      2.56097      6.85960     12.41014        -0.001546     -0.004591     -0.003118
      7.17706      5.90893     12.37868        -0.008530     -0.004235     -0.003512
      2.89197      1.62384      6.03583         0.004235      0.008530     -0.003512
      1.94130      6.23993      6.06729         0.004591      0.001546     -0.003118
      7.08099      2.58684      6.11136         0.002597      0.002063      0.007105
      6.31895      6.99434      6.59887         0.004351      0.004266     -0.005794
      8.34281      8.72565      3.05609         0.000274     -0.003846      0.003954
      4.64885      4.75235      3.05471         0.001666     -0.001936     -0.002089
      0.07525      0.45809      9.39894         0.003846     -0.000274      0.003954
      4.04855      4.15205      9.39756         0.001936     -0.001666     -0.002089
      4.72375      8.37899      3.66497        -0.043825      0.043546     -0.049961
      5.21229      0.75829      8.88152        -0.050916     -0.042901      0.041446
      8.04261      3.58861      2.53867         0.042901      0.050916      0.041446
      0.42191      4.07715     10.00782        -0.043546      0.043825     -0.049961
 -----------------------------------------------------------------------------------
    total drift:                                0.011949     -0.010548     -0.009200


--------------------------------------------------------------------------------------------------------



  FREE ENERGIE OF THE ION-ELECTRON SYSTEM (eV)
  ---------------------------------------------------
  free  energy   TOTEN  =      -203.21102200 eV

  energy  without entropy=     -203.21102200  energy(sigma->0) =     -203.21102200
 


--------------------------------------------------------------------------------------------------------


    POTLOK:  cpu time    0.1775: real time    0.1775


--------------------------------------------------------------------------------------------------------


 stress matrix after NEB project (eV)
      2.80646     -0.49776      0.10204
     -0.49776      2.80646     -0.10204
      0.10204     -0.10204      4.95143
  FORCES: max atom, RMS     0.094072    0.051395
  FORCE total and by dimension    0.356074    0.092045
  Stress total and by dimension    6.387980    4.951430
     LOOP+:  cpu time  182.9839: real time  183.1831
    4ORBIT:  cpu time    0.0000: real time    0.0000
 


 total charge     
 
# of ion       s       p       d       tot
------------------------------------------
    1        0.639   0.047   0.000   0.687
    2        0.640   0.046   0.000   0.686
    3        0.640   0.046   0.000   0.686
    4        0.613   0.077   0.000   0.689
    5        0.604   0.076   0.000   0.681
    6        0.607   0.076   0.000   0.683
    7        0.640   0.047   0.000   0.687
    8        0.641   0.046   0.000   0.687
    9        0.641   0.046   0.000   0.687
   10        0.607   0.076   0.000   0.683
   11        0.606   0.076   0.000   0.681
   12        0.606   0.076   0.000   0.682
   13        0.640   0.047   0.000   0.687
   14        0.641   0.046   0.000   0.687
   15        0.641   0.046   0.000   0.687
   16        0.607   0.076   0.000   0.683
   17        0.606   0.076   0.000   0.683
   18        0.605   0.076   0.000   0.681
   19        0.639   0.047   0.000   0.687
   20        0.640   0.046   0.000   0.686
   21        0.640   0.046   0.000   0.686
   22        0.613   0.077   0.000   0.689
   23        0.607   0.076   0.000   0.683
   24        0.604   0.076   0.000   0.681
   25        1.808   0.916   0.110   2.834
   26        1.808   0.924   0.112   2.845
   27        1.808   0.917   0.110   2.836
   28        1.808   0.923   0.112   2.844
   29        1.330   2.908   0.000   4.238
   30        1.329   2.910   0.000   4.239
   31        1.329   2.909   0.000   4.239
   32        1.330   2.908   0.000   4.238
   33        1.505   2.808   0.007   4.320
   34        1.506   2.806   0.007   4.320
   35        1.507   2.803   0.008   4.317
   36        1.505   2.804   0.007   4.316
   37        1.505   2.804   0.007   4.316
   38        1.507   2.803   0.008   4.318
   39        1.506   2.806   0.007   4.319
   40        1.505   2.808   0.007   4.320
   41        1.506   2.805   0.008   4.318
   42        1.506   2.808   0.008   4.322
   43        1.506   2.805   0.008   4.319
   44        1.506   2.808   0.008   4.321
   45        1.234   2.736   0.000   3.970
   46        1.234   2.736   0.000   3.971
   47        1.234   2.736   0.000   3.971
   48        1.234   2.736   0.000   3.969
--------------------------------------------------
tot         50.523  61.396   0.533 112.453
 

 total amount of memory used by VASP MPI-rank0    96380. kBytes
=======================================================================

   base      :      30000. kBytes
   nonlr-proj:       8849. kBytes
   fftplans  :       5145. kBytes
   grid      :       8225. kBytes
   one-center:         97. kBytes
   wavefun   :      44064. kBytes
 
  
  
 General timing and accounting informations for this job:
 ========================================================
  
                  Total CPU time used (sec):      245.681
                            User time (sec):      194.350
                          System time (sec):       51.330
                         Elapsed time (sec):      250.046
  
                   Maximum memory used (kb):      214200.
                   Average memory used (kb):           0.
  
                          Minor page faults:        16922
                          Major page faults:           27
                 Voluntary context switches:          712
